[Molden Format]
made by pyscf v[2.3.0]
[Atoms] (AU)
Fe   1   26     0.00000000000000     0.00000000000000     0.00000000000000
Se   2   34     0.00000000000000     0.00000000000000     4.53534269895615
[GTO]
1 0
 s    8 1.00
          300784.84637  0.00024103305017787
          45088.970557  0.0018687382457119
          10262.516317  0.0097155134617046
          2905.2897293   0.039479967013317
          946.11487137    0.12842162832271
          339.87832894    0.30457860754832
          131.94425588    0.43465553776779
          52.111494077    0.22742382379948
 s    4 1.00
          329.48839267  -0.024716645792921
          101.92332739   -0.11669599822835
          16.240462745    0.55229779440271
          6.8840675801    0.53539752037712
 s    2 1.00
          10.470693782   -0.37745869768095
          1.7360039648     1.1722622909796
 s    1 1.00
         0.72577288979                   1
 s    1 1.00
         0.11595528203                   1
 s    1 1.00
        0.041968227746                   1
 p    6 1.00
           1585.395997  0.0027395641750272
          375.38006499   0.022167496552173
          120.31816501    0.10364840341367
          44.788749031    0.29703230666936
          17.829278584    0.47773374381763
          7.2247153786    0.27871749884095
 p    3 1.00
          28.143219756  -0.020268742366329
          3.8743241412    0.38603381535444
          1.5410752281    0.67538247288481
 p    1 1.00
          0.5828561525                   1
 p    1 1.00
              0.134915                   1
 d    4 1.00
          61.996675034   0.019497333982305
          17.873732552    0.11922868100386
          6.2744782934    0.37625274789341
          2.3552337175    0.64997843079553
 d    1 1.00
         0.85432239901                   1
 d    1 1.00
         0.27869254413                   1
 d    1 1.00
                 0.091                   1
 f    1 1.00
                 1.598                   1

2 0
 s    8 1.00
          531071.66696  0.00023250013436328
          79603.044117  0.0018030310921396
           18115.84424  0.0093806002257997
          5127.8923194   0.038193744864089
          1669.9130839    0.12487510513167
          600.57534527     0.2985640773394
          233.70021247    0.43508374792775
          92.672443932    0.23703476348375
 s    4 1.00
          571.57513675  -0.025689818723494
          177.63686375   -0.12102876078448
          29.517767052    0.55112023868121
          12.824399795    0.53841725796906
 s    2 1.00
          19.848235841   -0.41070358107391
          3.4744018486     1.1913902900764
 s    1 1.00
          1.5988910849                   1
 s    1 1.00
         0.38333469387                   1
 s    1 1.00
         0.14049742459                   1
 p    6 1.00
          2815.3500566  0.0027376045951124
          666.92558298   0.022349240074319
          214.34213188    0.10575253649928
          80.246687942    0.30483987150115
          32.251081288    0.48184086791936
          13.106432562    0.26141629655488
 p    4 1.00
          53.366108516  -0.018982350176163
          8.1827777195    0.28759360607356
          3.6239945672    0.50840856299736
          1.6341591401    0.30202518917809
 p    1 1.00
         0.58418320228                   1
 p    1 1.00
         0.23966269279                   1
 p    1 1.00
        0.088785134803                   1
 d    5 1.00
          151.82910279   0.010329311278932
          44.839992523   0.070444556483121
           16.32899951    0.24000423124262
          6.4305057612    0.44314439073365
          2.5048025169    0.46130007038313
 d    1 1.00
         0.90271148434                   1
 d    1 1.00
            0.47683613                   1
 d    1 1.00
             0.1853516                   1
 f    1 1.00
            0.48866905                   1

[5d]
[7f]
[9g]

[MO]
 Sym= A
 Ene=               0
 Spin= Alpha
 Occup=    1.00000
   1    -1.6549504847876e-06
   2    -6.4694599862475e-06
   3    -3.4417936056538e-05
   4    8.9928737575574e-05
   5    -0.00031785289579917
   6    -9.2870744714799e-05
   7    3.2569402530093e-13
   8    5.0048418534238e-13
   9    1.046567920165e-06
  10    -1.3612194165448e-12
  11    -1.7040618979924e-12
  12    -5.2057699351473e-06
  13    2.243764801177e-12
  14    1.2355620450778e-12
  15    2.4242382925006e-05
  16    -1.4079859908068e-14
  17    1.633884320889e-12
  18    -0.00034318955553793
  19    -4.5824801345092e-07
  20    1.2426001345058e-11
  21    -1.9140518026931e-12
  22    -5.2152006301036e-10
  23    -1.1392499157951e-09
  24    6.7999787555095e-06
  25    7.8591524544862e-12
  26    -5.486572925303e-13
  27     5.67712411818e-10
  28    1.0871003322185e-09
  29    -8.1456699958644e-05
  30    4.6414011362572e-12
  31    -5.0106234207853e-12
  32    -1.27678615669e-09
  33    -2.67979306906e-09
  34    -6.6499762508892e-05
  35    3.6711254854386e-12
  36    2.6315497817937e-12
  37    4.0941127523944e-09
  38    8.3381492228681e-09
  39    -5.7227345519669e-06
  40    -4.736265492243e-13
  41    -7.1450694161336e-14
  42    7.2932987158361e-10
  43    1.459842097302e-09
  44    -3.5361777067513e-13
  45    3.4528882806507e-13
  46      0.99741542160122
  47    0.0075304032652493
  48    -0.003478213544749
  49    0.0028591785863403
  50    -0.0012246928213914
  51    0.00088859875179545
  52    3.3319365612434e-10
  53    7.4141615169416e-11
  54    8.8839818459328e-07
  55    -7.0107394195792e-11
  56    4.0882752168557e-12
  57    -1.0226098094659e-05
  58    -4.7400827657105e-11
  59    -6.4489900785688e-11
  60    6.2730731223774e-05
  61    4.2419242210228e-11
  62    5.5586739883089e-11
  63    -0.00011147910842919
  64    -1.5955154186962e-11
  65    -1.8121019210346e-11
  66    -0.00026511848355191
  67    -4.4275614660995e-06
  68    -5.0959209289661e-12
  69    4.0244950174616e-12
  70    2.1356602515004e-07
  71    4.3015834934414e-07
  72    3.7118088517957e-05
  73    4.6921190251711e-12
  74    -2.7640781434528e-12
  75    -1.9629442098537e-07
  76    -3.9530742980631e-07
  77    -8.8065989386106e-05
  78    -1.9202125525464e-12
  79    1.7952844097609e-12
  80    1.2338698571893e-07
  81    2.4844609777551e-07
  82    0.00021625837363006
  83    5.0354607051037e-12
  84    6.3829433815136e-13
  85    -4.1219025108268e-08
  86    -8.300350195394e-08
  87    -3.7532722033166e-05
  88    2.5470361783375e-13
  89    9.3329997514214e-13
  90    -1.1667742812479e-10
  91    -2.4360010490175e-10
  92    -4.6522578911678e-13
  93    -4.3240410511777e-13
 Sym= A
 Ene=               1
 Spin= Alpha
 Occup=    1.00000
   1      0.99774351065044
   2    0.0070111266681181
   3    -0.0027688475742315
   4    0.0019562687983937
   5    -0.000859596723277
   6    0.00018728972748952
   7    3.3554114416169e-10
   8    -1.7852807200597e-10
   9    4.044588968508e-06
  10    -3.6042923115197e-10
  11    6.9275092570519e-11
  12    -1.450300485533e-05
  13    3.6724353298617e-10
  14    -5.989645951419e-11
  15    5.5882517344982e-05
  16    -1.2596525678778e-10
  17    2.0908170995679e-11
  18    -0.00036830421815982
  19    -1.0226386887208e-05
  20    6.6922546120191e-10
  21    -1.0965111545457e-09
  22    3.4349756363859e-07
  23    7.460548054522e-07
  24    4.7403089471755e-05
  25    -4.6109502541322e-10
  26    8.675540566076e-10
  27    -2.2236228050608e-07
  28    -5.0325672285531e-07
  29    -0.00014981674880384
  30    3.3557936888916e-10
  31    -4.6814895901944e-10
  32    1.1923020257306e-07
  33    2.5731228846024e-07
  34    -7.4653878788582e-05
  35    -1.6466186597875e-10
  36    1.7474568912725e-10
  37    -4.1282815919545e-08
  38    -9.0836302328175e-08
  39    -8.9534549825567e-06
  40    -1.7929956586639e-11
  41    -2.4997734168873e-12
  42    2.333199436656e-08
  43    4.6261050501983e-08
  44    -1.1545265684355e-11
  45    8.6223725225051e-12
  46    -1.9843238773233e-06
  47    -8.1716695668158e-06
  48    -3.6210216977385e-05
  49    8.5422940158268e-05
  50    -0.00025477764681046
  51    0.00050804621672898
  52    4.004789984165e-13
  53    -4.0045004028301e-13
  54    2.5228299598608e-06
  55    -2.0294092031233e-12
  56    2.1896393571392e-12
  57    -1.0726693500939e-05
  58    1.6071633619332e-11
  59    -3.0782182713693e-11
  60    8.7001632955186e-05
  61    -1.3065399873723e-11
  62    8.9476566842846e-11
  63    -0.00022089627089046
  64    1.9077032803155e-11
  65    -1.2879047932998e-10
  66    -0.00021680704632518
  67    6.3881161944507e-08
  68    -1.9716256661558e-11
  69    -9.9448978853614e-12
  70    -1.4851428899353e-10
  71    -3.6166274916313e-10
  72    -6.4269249031913e-06
  73    -2.1898347516706e-11
  74    1.4656017514369e-11
  75    1.2036906121933e-09
  76    2.8873895986756e-09
  77    3.9982680363126e-06
  78    4.966280200536e-11
  79    2.5688076039076e-12
  80    -2.6628619054763e-09
  81    -6.0761376026377e-09
  82    0.00017336061672241
  83    1.1850314340238e-10
  84    -2.3025656072205e-11
  85    3.0340473559151e-09
  86    6.7649013106733e-09
  87    -2.8302867064065e-05
  88    -1.1234888450983e-11
  89    3.9129906041813e-11
  90    1.6470992889687e-09
  91    3.5370609184499e-09
  92    -3.7584120505063e-12
  93    -4.9648710207799e-13
 Sym= A
 Ene=               2
 Spin= Alpha
 Occup=    1.00000
   1    -8.1051233335031e-06
   2    -3.2538882750317e-05
   3    -0.000169588097606
   4    0.00044938198195242
   5    -0.0016212897251555
   6    -0.00048918046055096
   7    2.0934462682541e-12
   8    6.623267955591e-12
   9    5.6213172603231e-06
  10    -2.8248202586404e-12
  11    -2.5375763866674e-11
  12    -2.7926210411387e-05
  13    -2.5117896519489e-11
  14    6.7356248664471e-12
  15    0.00012512486812536
  16     7.04817785127e-11
  17    7.4214238336841e-11
  18    -0.001760720617333
  19    -1.8679065317867e-06
  20    3.4277760053205e-10
  21    7.9994556073947e-11
  22    1.4282031865924e-08
  23    2.6049036741558e-08
  24    3.2112282081268e-05
  25    2.1696778539077e-10
  26    6.3387803641608e-11
  27    -8.8491095169277e-08
  28    -1.7938008584211e-07
  29    -0.00040837968001328
  30    -4.2986317266908e-11
  31    -5.9177956850618e-11
  32    1.7562336637247e-07
  33    3.5116793679295e-07
  34    -0.00034263218412563
  35    2.2226546904717e-10
  36    1.350211407706e-10
  37    -6.113563467024e-07
  38    -1.2296356931775e-06
  39    -2.7212994854435e-05
  40    -1.7523569895453e-11
  41    -4.4549916978439e-12
  42    2.0069683631039e-09
  43    3.7563172869003e-09
  44    -5.0229536116004e-12
  45    3.267423876026e-12
  46      0.32518217947399
  47      -1.0394596547954
  48    -0.047506423656043
  49     0.020054155384986
  50    -0.0066825696785472
  51    0.0046511518398871
  52    -9.2639173090304e-08
  53    -2.8156886905241e-08
  54    0.00017516466568507
  55    -4.983722323694e-09
  56    -1.2670715033064e-09
  57    -4.7086933028773e-05
  58    -1.8839299789513e-09
  59    -1.1476054434795e-09
  60    0.00031341666222621
  61    1.8588838358421e-09
  62    1.0054384314378e-09
  63    -0.00055606540393219
  64    -5.48730839658e-10
  65    -4.4615579783865e-10
  66    -0.0013709415499512
  67    1.3056018561948e-05
  68    6.2305677552617e-10
  69    -6.3052294992114e-10
  70    -3.2687366830901e-05
  71    -6.5840145931598e-05
  72    0.00016454738071431
  73    -5.3815455443167e-10
  74    4.7926086610276e-10
  75    2.3296233482642e-05
  76    4.6925084283274e-05
  77    -0.00043190641256684
  78    4.5103350779594e-10
  79    -4.4281070286432e-10
  80    -1.9168669182282e-05
  81    -3.8612337226315e-05
  82     0.001102945791773
  83    -1.7852808548236e-10
  84    2.2303412662748e-10
  85    5.3562565550343e-06
  86    1.0788964410043e-05
  87    -0.0001894983156267
  88    -1.664762638234e-11
  89    3.3489372317893e-11
  90    -5.4257501742256e-08
  91    -1.0902694157105e-07
  92    -1.073340284966e-11
  93    -1.2484456707948e-11
 Sym= A
 Ene=               3
 Spin= Alpha
 Occup=    1.00000
   1    1.0298124491114e-11
   2    -1.4647758278217e-10
   3    -1.2318515803028e-10
   4    1.1063590848709e-09
   5    -2.4198844965688e-09
   6    -4.8876362728955e-10
   7    -4.6512947971886e-06
   8    -2.8838288189746e-06
   9    1.3999737050397e-10
  10    2.1746825380826e-05
  11    1.3483257855049e-05
  12    -3.9819470013401e-10
  13    -4.2928699849456e-05
  14    -2.6616164635061e-05
  15    9.3546682992063e-11
  16    9.986940180228e-05
  17    6.1919670803643e-05
  18    -9.1167728343029e-10
  19    -1.1425145369028e-09
  20    -1.0034078898793e-05
  21    -6.2233373322242e-06
  22    1.0807889542365e-10
  23    1.6861922138579e-10
  24    -5.1572570999318e-10
  25    4.4418073815621e-05
  26    2.7538847910013e-05
  27    8.3576206089956e-11
  28    1.2106671624152e-10
  29    -1.4765991858375e-09
  30    -0.00012190400031249
  31    -7.5581831893204e-05
  32    3.6520736900651e-11
  33    8.4709946251352e-11
  34    -8.3745944586895e-10
  35    8.3069513651945e-05
  36    5.1503506737536e-05
  37    3.0062451969584e-11
  38    3.2673948097055e-12
  39    -9.3361832336498e-11
  40    -1.2430499351073e-05
  41    -7.7068316948107e-06
  42    -1.1907808470263e-11
  43    -2.6887979341499e-11
  44    4.5548180987345e-10
  45    -2.0536802295871e-09
  46    3.0918415010575e-08
  47    -1.0096962529301e-07
  48    -6.1198704505853e-09
  49    7.2475506336259e-09
  50    -3.1705864721512e-09
  51    2.9942443523355e-09
  52      0.84446515180133
  53      0.52356640748234
  54    -1.1405332094627e-06
  55     0.014861562664648
  56      0.00921413352017
  57    -1.9960408820579e-08
  58    -0.0050427565801587
  59    -0.0031264983690896
  60    7.5524877374162e-09
  61    0.0032329064435935
  62    0.0020043960404584
  63    -6.9120586737146e-09
  64    -0.0011128388156372
  65    -0.00068995783884486
  66    9.8323556458278e-10
  67    -1.6518338027123e-09
  68    -1.0610428952989e-05
  69    -6.5791790180146e-06
  70    2.6828658023076e-09
  71    1.8819666540793e-09
  72    -3.7441984562678e-09
  73    2.9652029725387e-05
  74    1.8384462338618e-05
  75    2.3133024533615e-09
  76    5.7536904435804e-09
  77    1.958586562617e-09
  78    -4.5903278814735e-05
  79    -2.8460210621689e-05
  80    -9.3434037170577e-10
  81    -3.2011516696103e-09
  82    6.0607566371591e-10
  83    3.9808596030361e-05
  84    2.4681972476528e-05
  85    1.4856124616849e-10
  86    8.9262853056514e-10
  87    -3.8965619367592e-10
  88    8.1979435806316e-06
  89    5.0825121106908e-06
  90    4.4558418724108e-12
  91    3.3675789131442e-11
  92    -5.3186883356314e-08
  93    5.5905195407812e-07
 Sym= A
 Ene=               4
 Spin= Alpha
 Occup=    1.00000
   1    -9.3196304838468e-06
   2    -4.3903447910882e-05
   3    -0.00020493914340124
   4    0.00060133408387584
   5    -0.0015261224132878
   6    -2.4933830976337e-05
   7    -1.3751545797112e-10
   8    3.0758359350987e-10
   9    -1.6061790389496e-05
  10    6.7871830265069e-10
  11    -1.4070083518121e-09
  12    7.2380231338636e-05
  13    -1.4158741422169e-09
  14    2.6377978874424e-09
  15    -2.5467404679511e-05
  16    3.4623798383674e-09
  17    -6.0182653402579e-09
  18    -0.0016814146205918
  19    1.6736359352133e-06
  20    -5.6311158989128e-10
  21    9.4209940051515e-10
  22    -1.0256892869554e-08
  23    -2.379191174956e-08
  24    6.6203804219377e-05
  25    1.5006106101926e-09
  26    -2.5419184127304e-09
  27    -1.7176774466334e-09
  28    -5.1157202706784e-09
  29    -0.00074725347088149
  30    -4.1961540563265e-09
  31    7.3859215605223e-09
  32    -1.2456646262518e-08
  33    -2.8202530438288e-08
  34    -0.00045679968768727
  35    2.4765323934332e-09
  36    -5.3089555304713e-09
  37    -9.2848612606471e-09
  38    -1.7231806910221e-08
  39    -7.9393222346418e-05
  40    -4.4157320488516e-10
  41    7.4985547387541e-10
  42    -7.2808594998279e-09
  43    -1.5178822458631e-08
  44    -1.3948248969149e-11
  45    -1.8982300213733e-11
  46    4.1417261348357e-05
  47    -0.00021808664454894
  48    -0.00020573883714924
  49    0.00047801615890388
  50    -0.0012682800616476
  51    0.0023801124386674
  52    3.0497801233244e-05
  53    -5.1354692059899e-05
  54     -0.99359778035564
  55    5.3476107146203e-07
  56    -9.0029526259774e-07
  57    -0.017529570171027
  58    -1.8114977358607e-07
  59    3.0473557813339e-07
  60    0.0065271357976707
  61    1.1604797943258e-07
  62    -1.954124329336e-07
  63    -0.0050540443992587
  64    -3.9796090576977e-08
  65    6.7285990830405e-08
  66    0.00056002763560547
  67    1.6701908585531e-05
  68    -3.7766702345827e-09
  69    4.4687238128922e-10
  70    -4.6627831270174e-08
  71    -9.1840845784477e-08
  72    -2.6709985990664e-05
  73    -4.0075682792358e-09
  74    -5.6021965554063e-09
  75    -1.7537886536973e-08
  76    -3.7780248411449e-08
  77    -9.0290349639634e-05
  78    9.8857328334616e-10
  79    5.1992245110259e-09
  80    -2.0430543341477e-08
  81    -3.8390234805153e-08
  82    0.00090080006812437
  83    7.2777811177726e-10
  84    -3.2455850782595e-09
  85    1.0896549647812e-09
  86    2.5282751986804e-09
  87    -0.00023396849328708
  88    3.5479835966155e-10
  89    -5.44243460475e-10
  90    -1.9878294272211e-07
  91    -4.0017161259768e-07
  92    2.4716327208518e-11
  93    -2.4861756828186e-12
 Sym= A
 Ene=               5
 Spin= Alpha
 Occup=    1.00000
   1    -5.7414131959771e-10
   2    -2.6296160837284e-09
   3    -1.2487710194101e-08
   4    3.6266580641082e-08
   5    -9.1567406356915e-08
   6    -1.486627517953e-09
   7    2.8616120872879e-06
   8    -4.6158635771462e-06
   9    -9.6565750684846e-10
  10    -1.3380032034468e-05
  11    2.1582353961717e-05
  12    4.3381534086509e-09
  13    2.641255192506e-05
  14    -4.2603690499593e-05
  15    -1.4536806063163e-09
  16    -6.1449755374148e-05
  17    9.9116437769552e-05
  18    -1.0106486789975e-07
  19    3.5004197222833e-10
  20    6.1437914494579e-06
  21    -9.9098894885091e-06
  22    2.1289618832864e-10
  23    -2.4895206531875e-10
  24    4.2284559411177e-09
  25    -2.7362038680219e-05
  26    4.4132920899717e-05
  27    1.4883994242656e-10
  28    7.6288592172027e-12
  29    -4.4834934928216e-08
  30    7.5025123876269e-05
  31    -0.00012100901826879
  32    6.9284161656274e-11
  33    -8.1295156245334e-11
  34    -2.7324730329832e-08
  35    -5.1130502539864e-05
  36    8.2471836235135e-05
  37    4.3559832208568e-11
  38    2.2532262637597e-10
  39    -4.7787592837555e-09
  40    7.6474168141889e-06
  41    -1.2334343981327e-05
  42    1.4048117338794e-11
  43    3.4193424111856e-13
  44    -3.6274317609984e-09
  45    -4.8307917353831e-10
  46    -5.7263069384309e-09
  47    1.3770025998442e-08
  48    -1.078125446055e-08
  49    2.6914662254432e-08
  50    -7.5851416603953e-08
  51    1.4298711555648e-07
  52      -0.5235802644792
  53      0.84448750220672
  54    -5.9715493000381e-05
  55    -0.0091759809816627
  56     0.014800025226342
  57    -1.0531441718571e-06
  58     0.003105398916885
  59    -0.0050087291872933
  60    3.9187741351538e-07
  61    -0.0019898415324259
  62    0.0032094375026119
  63    -3.0311251510877e-07
  64    0.0006848102413562
  65    -0.0011045424870522
  66    3.3508329298377e-08
  67    1.9792495651709e-09
  68    7.0072026536763e-06
  69    -1.1303646248495e-05
  70    -1.9444271753146e-09
  71    2.6516438560203e-09
  72    -2.1367481095195e-09
  73    -1.8566124831176e-05
  74    2.9947996443927e-05
  75    -5.8650756497476e-09
  76    2.4599988388694e-09
  77    -4.8352265292422e-09
  78    2.8509323779109e-05
  79    -4.5986363849346e-05
  80    3.2904173968249e-09
  81    -1.1114933568147e-09
  82    5.3903513223904e-08
  83    -2.4564108014461e-05
  84    3.962109077889e-05
  85    -8.3838889087159e-10
  86    2.8315254457063e-11
  87    -1.3958608082767e-08
  88    -5.2088327876746e-06
  89    8.4013317307782e-06
  90    -1.3332045770857e-10
  91    -7.9255452263332e-11
  92    -5.5403095806376e-07
  93    -5.2658947245778e-08
 Sym= A
 Ene=               6
 Spin= Alpha
 Occup=    1.00000
   1       0.3146457458459
   2      -1.0364524929911
   3    -0.044306801214897
   4     0.017097021117288
   5    -0.006198920325442
   6    0.0013204153675848
   7    -1.0596881428285e-08
   8    6.9003879289379e-08
   9    -0.00050597653516673
  10    1.0766269155901e-08
  11    1.3458885254749e-08
  12    -0.00014857033021681
  13    -1.3103677730732e-08
  14    -1.4647405863606e-08
  15    0.00040945645254185
  16    1.5908488078749e-09
  17    8.9189180279951e-09
  18    -0.002507123412672
  19    -0.00046976239265034
  20    -1.2249969905767e-07
  21    2.1127280519247e-07
  22    -9.0019804408183e-05
  23    -0.00019093474278007
  24    0.00059165310099413
  25    1.1357655291072e-07
  26    -2.081147048161e-07
  27    3.2527309631004e-05
  28    7.8048703712157e-05
  29    -0.0010931849439074
  30    -2.2342699005281e-08
  31    4.0623177640219e-08
  32    -2.2613773545806e-05
  33    -4.6617045909996e-05
  34    -0.00048401296983992
  35    1.6740212048652e-08
  36    -3.1430482819058e-08
  37    5.5958594321753e-06
  38    1.3003644938592e-05
  39    -5.3037464277147e-05
  40    -3.7023399625779e-10
  41    3.2883987864774e-10
  42    2.2669020143191e-07
  43    4.3199295465488e-07
  44    -1.4597776379301e-10
  45    1.2077315646602e-10
  46    -1.1295303629197e-05
  47    -4.8296792777835e-05
  48    -0.00020801467777798
  49    0.00051063694113054
  50    -0.0016715475156132
  51     0.003448033251226
  52    -2.0428781600339e-09
  53    2.8473352630981e-09
  54    1.4069891577098e-05
  55    6.8000272875194e-09
  56    -9.5025757281425e-09
  57    -5.9737441831307e-05
  58    -8.2801741152497e-09
  59    1.2144312903101e-08
  60    0.00055078196920817
  61    -5.6555612704327e-09
  62    6.8406699958868e-09
  63    -0.0014861429319878
  64    -1.3541527365706e-08
  65    1.9964624943586e-08
  66    -0.001504113737727
  67    -4.3990104479133e-06
  68    -1.9828432779607e-10
  69    -9.9507187340284e-10
  70    8.9030500848408e-08
  71    1.6855611438957e-07
  72    -2.3183820728771e-05
  73    2.3942871953507e-09
  74    -3.3379732471865e-09
  75    -4.0121709923875e-07
  76    -8.8691422969984e-07
  77    1.9911465557818e-05
  78    -3.2034594393651e-09
  79    5.8880753205453e-09
  80    5.8739782055393e-07
  81    1.3277415365937e-06
  82    0.0011727986098216
  83    6.0986091828915e-10
  84    5.4282056136975e-09
  85    -7.8841650043683e-07
  86    -1.6693766073983e-06
  87    -0.00017349620246071
  88    3.2773769076035e-09
  89    -7.3186107022667e-09
  90    -1.6458432137374e-07
  91    -4.2797777341668e-07
  92    -4.806722808225e-10
  93    1.4296641122707e-10
 Sym= A
 Ene=               7
 Spin= Alpha
 Occup=    1.00000
   1    0.00017790515746453
   2    -0.00054935436002327
   3    0.00011975713555752
   4    -0.00019016842614742
   5    -0.00014961745882872
   6    0.00079914937750523
   7    0.00016268714970008
   8    -0.00028086580880469
   9      0.99047076570909
  10    4.2748489183444e-06
  11    -7.3840149131735e-06
  12     0.026162779743535
  13    -1.0676389683254e-06
  14    1.8499170050633e-06
  15    -0.0068876471312648
  16    3.0172764026484e-07
  17    -5.2892090595774e-07
  18    0.0023887571199329
  19    2.5183710377939e-05
  20    -1.3865572539887e-08
  21    -4.3910528942279e-08
  22    2.941557010104e-06
  23    5.9471849710678e-06
  24    -1.6223785272162e-05
  25    1.3005196375579e-08
  26    2.1446493792964e-08
  27    -1.863830405886e-07
  28    -1.3146221120289e-07
  29    -0.00022996330848249
  30    -4.2294932374997e-09
  31    1.2880706679415e-09
  32    2.5894592994217e-06
  33    5.2160669713576e-06
  34    0.00076113521958497
  35    7.5726971459803e-08
  36    -1.2824453694233e-07
  37    -2.9986116125721e-07
  38    -5.8530644232848e-07
  39    4.4939182880206e-05
  40    4.5706361437417e-08
  41    -5.8126360056303e-08
  42    1.8971948526874e-05
  43    4.1722007221296e-05
  44    2.9192552589969e-08
  45    1.4137239791949e-09
  46    3.0772192666635e-06
  47    1.4021852945348e-05
  48    5.8833302430996e-05
  49    -0.00012655826506443
  50    0.00035163291648037
  51    -0.0014746184033019
  52    2.9994996912993e-10
  53    2.4250983355944e-09
  54    1.5241552928611e-05
  55    -4.0673809229069e-10
  56    -8.9451001073812e-09
  57    -6.2031651164327e-05
  58    -1.4263746998708e-08
  59    3.3182835435369e-08
  60    0.00029076451075746
  61    4.5617636986085e-08
  62    -6.5053710190923e-08
  63    -3.9737955616858e-05
  64    -1.0858633539298e-07
  65    2.0188256998152e-07
  66    0.00042292728951897
  67    3.402585710778e-05
  68    -3.3011532789454e-09
  69    6.4934867144039e-09
  70    -9.5632101840747e-08
  71    -1.9727671814174e-07
  72    -0.00013514160285389
  73    2.7947181503701e-08
  74    -4.8516330309161e-08
  75    2.9550916601046e-08
  76    5.3457278931183e-08
  77    -5.0838286498346e-05
  78    -5.3685326624148e-08
  79    9.236189866553e-08
  80    2.8559670156446e-07
  81    5.8901544001213e-07
  82    0.00036967238515282
  83    8.3987054114961e-08
  84    -1.5023253336774e-07
  85    7.9722462909622e-07
  86    1.6256607982165e-06
  87    -0.0003457694497528
  88    -4.054596040512e-09
  89    8.6526071804198e-09
  90    -5.885364125891e-07
  91    -1.1996563157392e-06
  92    -1.2702289225882e-10
  93    2.5941376557247e-10
 Sym= A
 Ene=               8
 Spin= Alpha
 Occup=    1.00000
   1    -8.9531761994414e-09
   2    2.4358943305643e-08
   3    -1.6329253923677e-08
   4    2.2230078141385e-08
   5    -1.2398601962117e-08
   6    6.0763575580365e-09
   7      0.83195525800828
   8      0.53760329003899
   9    1.5797176991215e-05
  10     0.021746062666444
  11     0.014052111881078
  12    4.1141435982986e-07
  13    -0.0053772791694024
  14    -0.0034748309335507
  15    -1.0346125904548e-07
  16    0.0015287147901274
  17    0.0009878357540962
  18    3.411362355831e-08
  19    1.7625856028919e-08
  20    6.0265326959376e-05
  21    3.8191876003717e-05
  22    -7.820260857964e-10
  23    -2.6454666919133e-08
  24    -1.2954924823812e-08
  25    -2.139161779532e-05
  26    -1.3608715349208e-05
  27    -4.2422729772564e-10
  28    2.2774620066591e-08
  29    -1.1165428182229e-09
  30    -1.0033137566894e-05
  31    -6.784084179768e-06
  32    5.5770154818761e-10
  33    -2.3690310996087e-09
  34    8.2164810496178e-09
  35    0.00037168574854123
  36    0.00024024832650134
  37     9.22851972347e-10
  38    4.2992118230922e-09
  39    1.0275947576027e-08
  40    4.8251280912486e-05
  41    3.1043574365157e-05
  42    6.6303501474373e-08
  43    -3.6582797368719e-08
  44    -1.4051806410553e-05
  45    9.0745972680844e-05
  46    -3.9691061094765e-11
  47    2.550420521751e-10
  48    -8.4292249694492e-11
  49    -1.2596659836662e-09
  50    4.5133812562225e-09
  51    -1.608996856375e-08
  52    -3.9194054104113e-06
  53    -2.5529758625191e-06
  54    1.8256760675544e-10
  55    1.5816599324887e-05
  56    1.0286721068295e-05
  57    -7.7122586243924e-10
  58    -8.899955367959e-05
  59    -5.7567863085233e-05
  60    4.0977904204462e-09
  61    0.00020746822959868
  62    0.00013393212725551
  63    -7.3013496550038e-10
  64    -0.00057239770705955
  65    -0.00036985431318336
  66    2.2314769787289e-09
  67    -3.5025567867247e-10
  68    -1.8464544185926e-05
  69    -1.1943485705818e-05
  70    -1.388725014989e-10
  71    -1.185007119651e-10
  72    2.0997101087012e-09
  73    0.00013973861724851
  74    9.0285914781444e-05
  75    2.2989215093026e-11
  76    -3.4269912589094e-11
  77    -5.4968818059629e-09
  78    -0.00026411940572957
  79    -0.00017060958292962
  80    1.4082002686903e-10
  81    3.0055265854965e-10
  82    7.5621873468794e-09
  83    0.00042165320922274
  84    0.00027250614631438
  85    2.6072188175545e-10
  86    -3.6246853203173e-11
  87    -4.8706730289997e-09
  88    -2.0114812365902e-05
  89    -1.3025401448042e-05
  90    -2.2069955810962e-11
  91    3.2744690639921e-10
  92    -2.2042240153823e-08
  93    1.6436095856174e-07
 Sym= A
 Ene=               9
 Spin= Alpha
 Occup=    1.00000
   1    3.7573199935556e-08
   2    -1.1124602724424e-07
   3    3.9273586436147e-08
   4    -6.2956011463272e-08
   5    -4.2167482741257e-08
   6    2.5491771405868e-07
   7     -0.53762142962237
   8      0.83198339122328
   9    0.00032421580934743
  10    -0.013996996154168
  11     0.021660645815283
  12    8.4800953550384e-06
  13    0.0034380212023156
  14    -0.0053205053122587
  15    -2.1904238950947e-06
  16    -0.0009786348795665
  17    0.0015144373847307
  18    7.6542265417265e-07
  19    1.4328492568818e-08
  20    -2.2439206800629e-05
  21    3.3610665884977e-05
  22    3.3835098510226e-08
  23    1.1218172648593e-09
  24    -1.426672119303e-08
  25    9.2524256251987e-06
  26    -1.3972172055045e-05
  27    -1.9657038504989e-08
  28    -4.6901049289081e-09
  29    -6.8301748160005e-08
  30    1.2273998683398e-05
  31    -1.9429847298905e-05
  32    5.6241554993795e-09
  33    2.1073194766304e-09
  34    2.4280562122339e-07
  35    -0.00023942803217387
  36    0.00037062721634235
  37    -3.2023158238816e-09
  38    -3.0060580078826e-09
  39    3.9374749808481e-09
  40    -1.0114397494275e-05
  41    1.5441546708885e-05
  42    -1.0836600313984e-08
  43    -3.2345033500783e-08
  44    6.6423493944643e-05
  45    1.0329160040417e-05
  46    9.7377236928882e-10
  47    4.6132317636965e-09
  48    1.8878219321151e-08
  49    -4.1448497850441e-08
  50    1.1680015346325e-07
  51    -4.7798940378286e-07
  52    2.9351463676542e-06
  53    -4.5679665260719e-06
  54    4.8320932292749e-09
  55    -1.1503351962193e-05
  56    1.7885802189356e-05
  57    -1.9641321712192e-08
  58    5.7954885083279e-05
  59    -8.9765580250913e-05
  60    9.0789713950801e-08
  61    -0.00012981507800828
  62    0.00020074273062032
  63    -7.193800183417e-09