[Molden Format]
made by pyscf v[2.2.1]
[Atoms] (AU)
Fe   1   26     0.00000000000000     0.00000000000000     0.00000000000000
Se   2   34     0.00000000000000     0.00000000000000     4.53534269895615
[GTO]
1 0
 s    8 1.00
          300784.84637  0.00024103305017787
          45088.970557  0.0018687382457119
          10262.516317  0.0097155134617046
          2905.2897293   0.039479967013317
          946.11487137    0.12842162832271
          339.87832894    0.30457860754832
          131.94425588    0.43465553776779
          52.111494077    0.22742382379948
 s    4 1.00
          329.48839267  -0.024716645792921
          101.92332739   -0.11669599822835
          16.240462745    0.55229779440271
          6.8840675801    0.53539752037712
 s    2 1.00
          10.470693782   -0.37745869768095
          1.7360039648     1.1722622909796
 s    1 1.00
         0.72577288979                   1
 s    1 1.00
         0.11595528203                   1
 s    1 1.00
        0.041968227746                   1
 p    6 1.00
           1585.395997  0.0027395641750272
          375.38006499   0.022167496552173
          120.31816501    0.10364840341367
          44.788749031    0.29703230666936
          17.829278584    0.47773374381763
          7.2247153786    0.27871749884095
 p    3 1.00
          28.143219756  -0.020268742366329
          3.8743241412    0.38603381535444
          1.5410752281    0.67538247288481
 p    1 1.00
          0.5828561525                   1
 p    1 1.00
              0.134915                   1
 d    4 1.00
          61.996675034   0.019497333982305
          17.873732552    0.11922868100386
          6.2744782934    0.37625274789341
          2.3552337175    0.64997843079553
 d    1 1.00
         0.85432239901                   1
 d    1 1.00
         0.27869254413                   1
 d    1 1.00
                 0.091                   1
 f    1 1.00
                 1.598                   1

2 0
 s    8 1.00
          531071.66696  0.00023250013436328
          79603.044117  0.0018030310921396
           18115.84424  0.0093806002257997
          5127.8923194   0.038193744864089
          1669.9130839    0.12487510513167
          600.57534527     0.2985640773394
          233.70021247    0.43508374792775
          92.672443932    0.23703476348375
 s    4 1.00
          571.57513675  -0.025689818723494
          177.63686375   -0.12102876078448
          29.517767052    0.55112023868121
          12.824399795    0.53841725796906
 s    2 1.00
          19.848235841   -0.41070358107391
          3.4744018486     1.1913902900764
 s    1 1.00
          1.5988910849                   1
 s    1 1.00
         0.38333469387                   1
 s    1 1.00
         0.14049742459                   1
 p    6 1.00
          2815.3500566  0.0027376045951124
          666.92558298   0.022349240074319
          214.34213188    0.10575253649928
          80.246687942    0.30483987150115
          32.251081288    0.48184086791936
          13.106432562    0.26141629655488
 p    4 1.00
          53.366108516  -0.018982350176163
          8.1827777195    0.28759360607356
          3.6239945672    0.50840856299736
          1.6341591401    0.30202518917809
 p    1 1.00
         0.58418320228                   1
 p    1 1.00
         0.23966269279                   1
 p    1 1.00
        0.088785134803                   1
 d    5 1.00
          151.82910279   0.010329311278932
          44.839992523   0.070444556483121
           16.32899951    0.24000423124262
          6.4305057612    0.44314439073365
          2.5048025169    0.46130007038313
 d    1 1.00
         0.90271148434                   1
 d    1 1.00
            0.47683613                   1
 d    1 1.00
             0.1853516                   1
 f    1 1.00
            0.48866905                   1

[5d]
[7f]
[9g]

[MO]
 Sym= A
 Ene=               0
 Spin= Alpha
 Occup=    1.00000
   1    -1.6549494687312e-06
   2    -6.4694617276969e-06
   3    -3.4417925695192e-05
   4    8.9928730377978e-05
   5    -0.00031785287817986
   6    -9.2870752605509e-05
   7    1.0582607976634e-13
   8    8.4001390326937e-13
   9    1.0465677036105e-06
  10    -9.7284915127922e-13
  11    -3.4125244084916e-12
  12    -5.2057707445524e-06
  13    3.9430984554871e-12
  14    5.5372929977277e-12
  15    2.424238744251e-05
  16    -7.6748719877358e-12
  17    -8.0155661152353e-12
  18    -0.00034318951703967
  19    -4.5825078129848e-07
  20    5.3630414540605e-12
  21    7.1572316681674e-12
  22    1.1703555329524e-09
  23    4.4204837720305e-10
  24    6.799972313707e-06
  25    6.0621608244326e-12
  26    4.0352099268119e-12
  27    -1.1756563057657e-09
  28    -3.6134192867068e-10
  29    -8.1456680593461e-05
  30    1.8087250444996e-12
  31    4.0916143519959e-12
  32    2.8041844517379e-09
  33    9.646133363641e-10
  34    -6.6499746675806e-05
  35    -5.3241771127707e-12
  36    -1.679363990902e-12
  37    -8.8004924958745e-09
  38    -2.9582644270958e-09
  39    -5.7227331785821e-06
  40    -2.3101475341073e-14
  41    -5.5679226345238e-13
  42    -1.5485430069133e-09
  43    -5.1274540601482e-10
  44    1.418450992491e-13
  45    8.9446611281829e-13
  46      0.99741542158634
  47    0.0075304032296178
  48    -0.0034782138106341
  49    0.0028591789180394
  50    -0.0012246929057776
  51    0.00088859872610362
  52    -2.3186519243938e-10
  53    2.9390882946656e-10
  54    8.8854670890106e-07
  55    3.9983227655647e-11
  56    -8.2009422973157e-11
  57    -1.0226057289211e-05
  58    7.1172126022024e-11
  59    2.1226561061928e-11
  60    6.2730520142948e-05
  61    -6.9838632553416e-11
  62    -2.4755843253509e-11
  63    -0.00011147890928277
  64    1.1348451060566e-11
  65    1.2134013657857e-11
  66    -0.00026511851133947
  67    -4.4275262864931e-06
  68    -5.2454724670464e-12
  69    5.3551215692755e-11
  70    -4.5537095055796e-07
  71    -1.5232046653913e-07
  72    3.7118072297507e-05
  73    7.3968376820913e-12
  74    -5.6545532290164e-11
  75    4.185055420575e-07
  76    1.3998018018751e-07
  77    -8.8065982205938e-05
  78    -4.3161728768439e-12
  79    3.5342911593242e-11
  80    -2.6303366059391e-07
  81    -8.7981212882821e-08
  82    0.00021625835063407
  83    -2.6667693345492e-12
  84    -1.6997761878796e-11
  85    8.7877133250242e-08
  86    2.939151822016e-08
  87    -3.7532718054206e-05
  88    1.7054554889654e-12
  89    1.742222893873e-13
  90    2.5551078928321e-10
  91    8.0883949538861e-11
  92    -7.5184703411342e-13
  93    -9.1521083479976e-13
 Sym= A
 Ene=               1
 Spin= Alpha
 Occup=    1.00000
   1      0.99774350956506
   2     0.007011129966907
   3    -0.0027688494279349
   4    0.0019562698385977
   5    -0.00085959690549424
   6    0.00018728983508083
   7    -4.4346420604448e-10
   8    2.6810129713455e-10
   9    4.0452061841894e-06
  10    3.8410990348415e-11
  11    7.4435912015339e-11
  12    -1.4503503037846e-05
  13    1.1693603555394e-10
  14    -1.6616526371291e-10
  15    5.5883007398291e-05
  16    -8.6055634796962e-11
  17    3.1093063753434e-11
  18    -0.00036830407571842
  19    -1.022480582986e-05
  20    -5.5107122006946e-10
  21    1.2391574280958e-10
  22    -7.6926509946884e-07
  23    -2.7951069636363e-07
  24    4.740172257216e-05
  25    7.5612842234033e-10
  26    3.7781909841346e-11
  27    5.1252535863555e-07
  28    1.9457709157498e-07
  29    -0.00014981605644661
  30    -1.9634236205745e-10
  31    1.5138177093794e-10
  32    -2.6578737512954e-07
  33    -9.6165456612947e-08
  34    -7.4654096939705e-05
  35    4.0757482458682e-11
  36    1.8770884505237e-12
  37    9.3316214435651e-08
  38    3.4653585741767e-08
  39    -8.9534539278216e-06
  40    3.1250398725225e-12
  41    1.9510594353324e-11
  42    -4.9205059765143e-08
  43    -1.6242567882197e-08
  44    -4.3077285604633e-12
  45    2.0961554970862e-11
  46    -1.9843265508551e-06
  47    -8.1716606277371e-06
  48    -3.6210235627689e-05
  49    8.5422898424252e-05
  50    -0.00025477739795371
  51    0.00050804593267427
  52    -2.2118707853671e-12
  53    -2.2225935485626e-11
  54    2.5228255207061e-06
  55    8.6829908820974e-12
  56    7.2295811660335e-11
  57    -1.0726680609661e-05
  58    -5.0760918761191e-11
  59    -4.3588655213427e-11
  60    8.7001625827485e-05
  61    1.280077793246e-10
  62    -1.7758503970891e-10
  63    -0.00022089624644149
  64    -1.4158775272129e-10
  65    -3.5792174302717e-11
  66    -0.00021680695398805
  67    6.386956574258e-08
  68    2.0500860695701e-11
  69    -6.7884784970137e-12
  70    3.5173195330595e-10
  71    1.2941248278241e-10
  72    -6.4268718840027e-06
  73    3.5825908337722e-11
  74    1.4215954280205e-11
  75    -2.8715689706148e-09
  76    -1.1348773123271e-09
  77    3.9981985064646e-06
  78    -1.0051465882541e-10
  79    3.671567279078e-12
  80    6.1558354225823e-09
  81    2.347355401094e-09
  82    0.00017336048331089
  83    -6.2269438675842e-11
  84    3.1146163083167e-12
  85    -6.8887320347819e-09
  86    -2.5409166737351e-09
  87    -2.8302843790645e-05
  88    7.4076866611835e-11
  89    1.3348209375492e-11
  90    -3.6346787284296e-09
  91    -1.4560585896991e-09
  92    -6.671705299257e-12
  93    -1.1659281473216e-11
 Sym= A
 Ene=               2
 Spin= Alpha
 Occup=    1.00000
   1    -8.1050956393154e-06
   2    -3.2538950091141e-05
   3    -0.00016958785028378
   4    0.00044938196669642
   5    -0.0016212900819263
   6    -0.00048918059142195
   7    5.1873839094842e-12
   8    2.9203756210163e-11
   9    5.621329265453e-06
  10    -3.4158073409784e-11
  11    -1.1046367756211e-10
  12    -2.7926293744076e-05
  13    1.1451288618174e-10
  14    1.1708180789073e-10
  15    0.00012512505789411
  16    -2.7505078929347e-10
  17    2.9593437827817e-10
  18    -0.0017607202569936
  19    -1.8679734680502e-06
  20    4.1921921592759e-11
  21    1.753311461231e-10
  22    -2.8458374723433e-08
  23    -8.4982367797677e-09
  24    3.2111973402319e-05
  25    2.379152812017e-11
  26    1.9609726912153e-10
  27    1.8935370666195e-07
  28    6.392657059085e-08
  29    -0.00040837926166102
  30    -1.5489506518637e-11
  31    -1.5208185561759e-10
  32    -3.7236102052123e-07
  33    -1.2432585967709e-07
  34    -0.00034263200669139
  35    -1.8984751411011e-10
  36    5.7040973181338e-10
  37    1.3019361269783e-06
  38    4.3575969592788e-07
  39    -2.7212986924252e-05
  40    -2.4466865586207e-11
  41    -8.3511697592394e-12
  42    -4.1282201766768e-09
  43    -1.1669592489253e-09
  44    -1.1102676522562e-11
  45    3.4143588194798e-12
  46      0.32518217914526
  47      -1.0394596564303
  48    -0.047506430347397
  49     0.020054166331335
  50    -0.0066825727007054
  51    0.0046511517925584
  52    6.4225558512184e-08
  53    -7.1307373372865e-08
  54    0.00017507145179556
  55    3.4326481841152e-09
  56    -4.1112741003251e-09
  57    -4.7091871541722e-05
  58    2.0770874920021e-09
  59     3.51651022717e-10
  60    0.0003134135012912
  61    -2.3909528315498e-09
  62    -1.4985029711217e-10
  63    -0.00055606204192741
  64    5.6099799049214e-10
  65    -1.8098933344876e-10
  66    -0.0013709421092697
  67    1.3050670935089e-05
  68    8.6307104744536e-10
  69    -7.9670616430834e-09
  70    6.9698690435762e-05
  71    2.3315587221354e-05
  72    0.00016455008872832
  73    -1.4679466982355e-09
  74    7.1437581870028e-09
  75    -4.9677481408217e-05
  76    -1.6618825161305e-05
  77    -0.00043190919397156
  78    1.1414281007055e-09
  79    -5.8562864413822e-09
  80    4.0876266358512e-05
  81    1.3674403224668e-05
  82    0.0011029464468077
  83    -4.705003386382e-10
  84    1.8839241428118e-09
  85    -1.142163321301e-05
  86    -3.8210868515301e-06
  87    -0.00018949833905388
  88    -2.5351469362946e-12
  89    -9.7887181353323e-11
  90    1.154973014235e-07
  91    3.8450469466375e-08
  92    8.510697975468e-12
  93    -2.7152850537398e-11
 Sym= A
 Ene=               3
 Spin= Alpha
 Occup=    1.00000
   1    -4.7859570195124e-10
   2    -2.7201836970048e-09
   3    -1.1360598478956e-08
   4    3.5054336016164e-08
   5    -8.8095302435484e-08
   6    -3.4711951790661e-09
   7    -8.7966472683623e-07
   8    5.4016094587312e-06
   9    -8.0807981726353e-10
  10    4.1129595866326e-06
  11    -2.5254905976065e-05
  12    3.8673125515403e-09
  13    -8.1193846685099e-06
  14    4.9853718289932e-05
  15    -1.7830819577523e-09
  16    1.8886860488037e-05
  17    -0.00011598008615128
  18    -9.4215958387143e-08
  19    -1.9323707984628e-10
  20    -1.9075310041904e-06
  21    1.1651672278097e-05
  22    4.5955998980348e-11
  23    1.4157294059746e-11
  24    3.569583134044e-09
  25    8.393308594867e-06
  26    -5.1584208203652e-05
  27    2.4125259507297e-11
  28    -1.6420361057477e-11
  29    -4.2629220089927e-08
  30    -2.305618086534e-05
  31    0.00014156873679481
  32    -6.1698678673733e-11
  33    -2.5939462087497e-10
  34    -2.6121993555607e-08
  35    1.5707911019902e-05
  36    -9.6470845919565e-05
  37    9.4269507230939e-11
  38    2.8320224198284e-10
  39    -4.4903755038706e-09
  40    -2.3504679991899e-06
  41    1.4435566246111e-05
  42    -2.9058139355705e-11
  43    1.1307073044413e-11
  44    1.2526371705416e-09
  45    -1.7229391444117e-09
  46    -2.4381952431187e-08
  47    7.4428044362959e-08
  48    -8.1132612569087e-09
  49    2.3383048621118e-08
  50    -7.1046847917631e-08
  51    1.3588924332842e-07
  52      0.15967863824274
  53     -0.98068644946494
  54    -5.5855261945147e-05
  55    0.0028101477028934
  56    -0.017258882980383
  57    -9.8902312041784e-07
  58    -0.00095352533583302
  59    0.0058562077380048
  60    3.6991767510609e-07
  61    0.00061130461617343
  62    -0.0037544102988809
  63    -2.8762924952872e-07
  64    -0.00021042175037537
  65    0.0012923528932908
  66    3.1401384409283e-08
  67    3.4560289521685e-09
  68    -2.006450521588e-06
  69    1.232065862267e-05
  70    3.4572390334228e-09
  71    2.1914874239304e-09
  72    -1.1576484114866e-09
  73    5.6083574574924e-06
  74    -3.4445803798161e-05
  75    -6.6561676449055e-10
  76    5.4749959025219e-09
  77    -4.9143736704103e-09
  78    -8.6804902900441e-06
  79    5.3314470059718e-05
  80    8.1240703565164e-10
  81    -2.9697245939489e-09
  82    5.1003892903272e-08
  83    7.5274650827689e-06
  84    -4.6232158275039e-05
  85    -3.2943345577204e-10
  86    9.4842594596186e-10
  87    -1.3230199531105e-08
  88    1.5499151793111e-06
  89    -9.5204531303424e-06
  90    9.9424702269984e-11
  91    1.1757042107694e-10
  92    -2.6138367371085e-07
  93    4.9657119864741e-07
 Sym= A
 Ene=               4
 Spin= Alpha
 Occup=    1.00000
   1    -9.3196580928684e-06
   2    -4.3903468437497e-05
   3    -0.00020493955156708
   4    0.00060133481061562
   5    -0.0015261231121428
   6    -2.4933798087817e-05
   7    3.2615991720319e-10
   8    -2.7859401895194e-10
   9    -1.6061791466224e-05
  10    -1.4643016445985e-09
  11    1.3031221449354e-09
  12    7.2380304235616e-05
  13    2.6834646026878e-09
  14    -2.594464190348e-09
  15    -2.5467494447147e-05
  16    -5.3813606877659e-09
  17    6.0818386703462e-09
  18    -0.0016814157099779
  19    1.6735373643268e-06
  20    5.7376933098181e-10
  21    -4.4193984025334e-10
  22    2.3651996106178e-08
  23    1.0572198834936e-08
  24    6.6203974552599e-05
  25    -2.3046684356487e-09
  26    2.5258886473773e-09
  27    4.4434675200271e-09
  28    2.9993881956415e-09
  29    -0.00074725454893976
  30    6.8146330207312e-09
  31    -6.5301264664279e-09
  32    2.8835555139323e-08
  33    1.0839418919766e-08
  34    -0.00045679988621294
  35    -4.4019692835619e-09
  36    5.0459734140285e-09
  37    1.8537316257426e-08
  38    6.0351581329816e-09
  39    -7.9393419882429e-05
  40    7.4983639277081e-10
  41    -7.1050603168918e-10
  42    1.592401941965e-08
  43    5.4095707026594e-09
  44    1.5233703402814e-11
  45    -1.1479780342439e-11
  46    4.1386342879261e-05
  47    -0.00021798618842426
  48    -0.00020573297752917
  49    0.00047800928788492
  50    -0.0012682785954648
  51     0.002380113437813
  52    -4.7625028737701e-05
  53    4.8839151043084e-05
  54     -0.99359777908075
  55    -8.3498897516671e-07
  56    8.5631007126645e-07
  57    -0.017529572677397
  58    2.8208362595031e-07
  59    -2.8925871643851e-07
  60    0.0065271421009089
  61    -1.8033632424539e-07
  62    1.8480330064756e-07
  63    -0.0050540508493869
  64    6.1828840996188e-08
  65    -6.4230038706235e-08
  66    0.00056002874257719
  67    1.6699824656662e-05
  68    2.027988028087e-09
  69    -4.2480297733785e-09
  70    9.7948268053888e-08
  71    3.1843850752185e-08
  72    -2.6721658424236e-05
  73    4.4258189748329e-09
  74    1.3774086978465e-09
  75    3.9334832529815e-08
  76    1.3939922681784e-08
  77    -9.028359298095e-05
  78    -1.1671791851877e-09
  79    -2.84129471593e-09
  80    4.1204754120243e-08
  81    1.3129520200709e-08
  82    0.0009007988308151
  83    -8.9281138177918e-10
  84    2.8061890487193e-09
  85    -2.3933972346216e-09
  86    -8.7910949005797e-10
  87    -0.0002339688508071
  88    -3.6350351542982e-10
  89    4.4196674853252e-10
  90    4.235635151877e-07
  91    1.4163158623576e-07
  92    1.9163282138924e-11
  93    -4.5620748817605e-11
 Sym= A
 Ene=               5
 Spin= Alpha
 Occup=    1.00000
   1    -3.5809493859453e-10
   2    -1.7107246830682e-09
   3    -7.9121844795162e-09
   4    2.340047280308e-08
   5    -5.9655099324452e-08
   6    -8.226531997928e-10
   7    -5.3604184790451e-06
   8    -8.7284453087762e-07
   9    -6.4763698650273e-10
  10    2.5063635355768e-05
  11    4.0811080661346e-06
  12    2.9458182703495e-09
  13    -4.9475754315992e-05
  14    -8.0564438361539e-06
  15    -1.3553044816481e-09
  16    0.00011510422722889
  17    1.8742864199483e-05
  18    -6.5247002616762e-08
  19     8.63048059081e-11
  20    -1.1508588004684e-05
  21    -1.8740077911822e-06
  22    -1.9220512637104e-10
  23    1.5098361929286e-10
  24    2.5611984886406e-09
  25    5.1252026663352e-05
  26    8.345372623618e-06
  27    1.6183865177962e-10
  28    3.8182436202121e-11
  29    -2.9345318077038e-08
  30    -0.00014052922760287
  31    -2.2882260509553e-05
  32    -1.6265936292456e-10
  33    7.9518126219568e-12
  34    -1.7674786244253e-08
  35    9.5774035812528e-05
  36    1.5594649043178e-05
  37    1.6878805857898e-10
  38    5.1143479691241e-11
  39    -3.1462854252419e-09
  40    -1.432412451687e-05
  41    -2.3324242883877e-06
  42    6.6655842454048e-12
  43    -1.1239985157948e-11
  44    -3.1863883333573e-09
  45    -1.7638446624053e-09
  46    -1.5469682931025e-08
  47    4.7466019847563e-08
  48    -4.154010013604e-09
  49    1.423019494682e-08
  50    -4.9178505287553e-08
  51    9.3388783732108e-08
  52       0.9807124025301
  53      0.15968286598318
  54    -3.9156304691379e-05
  55     0.017187432289202
  56      0.00279851476319
  57    -6.9045457594042e-07
  58    -0.0058166962467575
  59    -0.00094709408317778
  60    2.5714930530114e-07
  61     0.003727157729318
  62    0.00060687080402453
  63    -1.9902720698597e-07
  64    -0.0012827156651302
  65    -0.0002088584173075
  66    2.2722690253852e-08
  67    1.197108176595e-09
  68    -1.3124821729931e-05
  69    -2.1360640800205e-06
  70    -2.0631066725337e-09
  71    3.5475364454761e-09
  72    2.2014934088229e-09
  73    3.4788079978034e-05
  74    5.6637531044669e-06
  75    -5.8667987929459e-09
  76    -9.6604379709851e-10
  77    -5.3267268986365e-09
  78    -5.3408848357649e-05
  79    -8.6960859180089e-06
  80    3.3897407242805e-09
  81    1.0812541986146e-09
  82    3.5594302264967e-08
  83    4.6012922631596e-05
  84    7.4919886389948e-06
  85    -9.0758591102561e-10
  86    -1.634897610588e-10
  87    -9.1084609715748e-09
  88    9.7560483849619e-06
  89    1.5884476540984e-06
  90    -3.5408079846312e-10
  91    -1.5610314068845e-12
  92    -4.9263607874683e-07
  93    -2.5921445325893e-07
 Sym= A
 Ene=               6
 Spin= Alpha
 Occup=    1.00000
   1     -0.31464574168932
   2       1.0364524766355
   3     0.044306860518822
   4    -0.017097060895595
   5    0.0061990165950287
   6    -0.0013204217232924
   7    -1.0735644505245e-07
   8    8.7572563989114e-08
   9    0.00050616595118854
  10    8.1462619877726e-10
  11    1.1583114393446e-09
  12    0.0001485866805664
  13    -7.5129854450937e-09
  14    4.9672162693236e-09
  15    -0.00040948448938827
  16    -1.2713944563523e-09
  17    -2.8609147781564e-09
  18    0.0025072164853296
  19    0.00047020477234645
  20    -1.3446767725786e-07
  21    1.0250514461727e-08
  22    -0.0001982158577984
  23    -7.0342163077322e-05
  24    -0.00059197107577664
  25    1.3391179347556e-07
  26    1.0708468316315e-08
  27    7.8173654659814e-05
  28    3.1385992771941e-05
  29     0.001093318494551
  30    -2.423033793198e-08
  31    3.8497046298763e-09
  32    -4.8815631893534e-05
  33    -1.680453087099e-05
  34    0.0004839779043512
  35    2.0694478690256e-08
  36    -3.3402370556439e-09
  37    1.3142726497307e-05
  38    5.109375566228e-06
  39    5.304118420122e-05
  40    -1.7247898760761e-10
  41    -8.2887742699716e-11
  42    4.6719219648114e-07
  43    1.4725708124662e-07
  44    9.8502905081504e-11
  45    -1.4828501181557e-10
  46    1.1295210561886e-05
  47    4.8297788378782e-05
  48    0.00020801507158543
  49    -0.00051064390717917
  50    0.0016715919444528
  51    -0.0034481206601875
  52    -1.8987371689632e-09
  53    -8.2106102656519e-10
  54    -1.407274485474e-05
  55    6.3429730620943e-09
  56    2.8037218299487e-09
  57    5.9747090367053e-05
  58    -8.1278330892363e-09
  59    -5.079506236711e-09
  60    -0.00055080668732691
  61    -4.8185366058918e-09
  62    2.2317984064848e-09
  63    0.0014861894891383
  64    -1.3164542337632e-08
  65    -4.6197348311781e-09
  66    0.0015041335888204
  67    4.4005202027475e-06
  68    -2.5158820165171e-10
  69    3.5771805069166e-10
  70    1.8097301832498e-07
  71    5.8422995067973e-08
  72    2.3190523236617e-05
  73    3.031836624866e-09
  74    3.9738962238502e-11
  75    -9.0942359263604e-07
  76    -3.3982951929287e-07
  77    -1.9931896645713e-05
  78    -3.524662792924e-09
  79    -3.908194213146e-10
  80    1.3529546820841e-06
  81    5.1383853560546e-07
  82    -0.0011728319483879
  83    -6.360838454342e-10
  84    -1.8826730763417e-09
  85    -1.7341666138982e-06
  86    -6.2141790898464e-07
  87    0.00017350681096998
  88    4.5013536166642e-09
  89    3.1828761808116e-09
  90    -4.1869132689947e-07
  91    -1.810778070245e-07
  92    3.2523737857805e-10
  93    -1.0316972113928e-10
 Sym= A
 Ene=               7
 Spin= Alpha
 Occup=    1.00000
   1    0.00017796663997211
   2    -0.00054955321811565
   3    0.00011976520556069
   4    -0.00019019412530096
   5    -0.00014958992117595
   6    0.00079916902318481
   7    -0.00017152222803605
   8    1.9971108358009e-05
   9      0.99047072465628
  10    -4.5122727376364e-06
  11    5.2940696327634e-07
  12     0.026163008982277
  13    1.1340401121898e-06
  14    -1.3633335687233e-07
  15    -0.0068877693446992
  16    -3.2440574994327e-07
  17    3.5337435995789e-08
  18    0.0023888380122966
  19    2.5234117096437e-05
  20    2.9740289893258e-09
  21    -2.7794604569568e-09
  22    -6.2771668871701e-06
  23    -2.1009488355637e-06
  24    -1.626927727392e-05
  25    -6.7872963325315e-09
  26    3.3996019518897e-09
  27    2.2425465648172e-07
  28    -1.2077521330762e-08
  29    -0.00022993605053977
  30    6.0589227989701e-09
  31    1.9748206988473e-09
  32    -5.5174711433265e-06
  33    -1.8427243000238e-06
  34    0.00076114860321197
  35    -8.1968536206734e-08
  36    6.844917495374e-09
  37    6.2818564546091e-07
  38    2.0012226604911e-07
  39    4.4967957603572e-05
  40    -3.6553908708882e-08
  41    -1.5914562157697e-08
  42    -4.2800404545921e-05
  43    -1.5807900998795e-05
  44    1.4968685931634e-08
  45    3.4130267124867e-09
  46    3.0773915198341e-06
  47    1.402261704605e-05
  48    5.8836534255412e-05
  49    -0.00012656616518235
  50    0.00035166107368289
  51    -0.0014746902711042
  52    8.2189375718128e-10
  53    -3.9689734004677e-10
  54    1.5241497648438e-05
  55    -3.2976300659699e-09
  56    1.4071409665935e-09
  57    -6.2031403373862e-05
  58    1.8372674330134e-08
  59    -3.5314693161939e-09
  60    0.00029075912227548
  61    -4.340441545754e-08
  62    3.4598016954478e-09
  63    -3.9710821847309e-05
  64    1.2298264485153e-07
  65    -1.1287826950701e-08
  66    0.00042294452644531
  67    3.4026000796516e-05
  68    3.9107727011661e-09
  69    2.7320215009536e-10
  70    2.0834771459186e-07
  71    6.9693264645704e-08
  72    -0.00013514204927745
  73    -2.9755369859587e-08
  74    2.5452320534902e-09
  75    -6.0322372959341e-08
  76    -1.5612002741575e-08
  77    -5.0842862555549e-05
  78    5.618362351584e-08
  79    -5.0108888200532e-09
  80    -6.1823316926264e-07
  81    -2.1238469077733e-07
  82    0.00036966798996924
  83    -9.0105670793509e-08
  84    3.9076602379626e-09
  85    -1.7171799832485e-06
  86    -5.7760330741959e-07
  87    -0.00034577014070668
  88    4.5507904558719e-09
  89    -9.8711907032706e-10
  90    1.2640771719123e-06
  91    4.3077735703089e-07
  92    -4.0122947921797e-11
  93    -1.0801361389924e-10
 Sym= A
 Ene=               8
 Spin= Alpha
 Occup=    1.00000
   1    2.3884448235642e-08
   2    -8.1184504215023e-08
   3    -1.1481270792988e-08
   4    4.613361813671e-09
   5    1.7873395783615e-08
   6    -2.8589927983413e-08
   7     -0.17561219119791
   8      0.97484735389262
   9    -5.0067254971317e-05
  10    -0.0045901776359178
  11     0.025480784331375
  12    -1.312531383149e-06
  13    0.0011350929119264
  14    -0.0063006889323969
  15    3.4189516895537e-07
  16    -0.00032268731462594
  17    0.0017912266962694
  18    -1.2902855582523e-07
  19    3.2176230400642e-09
  20    -1.2047532949796e-05
  21    7.0354788456857e-05
  22    2.955813334081e-09
  23    1.0616991598887e-08
  24    -1.1772302398751e-08
  25    4.3772996595315e-06
  26    -2.4999983801261e-05
  27    -9.7282116753248e-09
  28    -1.3297292161498e-08
  29    1.0839358025101e-08
  30    2.3915015711229e-06
  31    -1.1864211862103e-05
  32    -9.3891020351196e-11
  33    2.7893037408757e-09
  34    -3.9343799583524e-08
  35    -7.8500871472583e-05
  36    0.00043554356253264
  37    -3.1804722021202e-09
  38    -4.2226459256985e-09
  39    -1.7195780929153e-08
  40    -1.0088715852086e-05
  41    5.6437771372022e-05
  42    8.043471895503e-09
  43    -3.7482165674834e-08
  44    4.6980985499589e-05
  45    -7.8839327122878e-05
  46    -1.0493123681881e-10
  47    -1.0316396712561e-09
  48    -2.8657040149299e-09
  49    8.078247464102e-09
  50    -2.1150026500809e-08
  51    7.5062636832831e-08
  52    8.4269935421986e-07
  53    -4.6005481975739e-06
  54    -1.6871977965094e-10
  55    -3.3886124069525e-06
  56    1.8558966121862e-05
  57    1.1118421636792e-09
  58    1.8826402545991e-05
  59    -0.00010430395290404
  60    -1.1764469289052e-08
  61    -4.3682253055412e-05
  62    0.00024304312915393
  63    2.7800195274679e-09
  64    0.00012078329701189
  65    -0.00067069500592892
  66    -2.0093145826388e-08
  67    -1.9120390786975e-09
  68    3.9087538413999e-06
  69    -2.1638931707435e-05
  70    3.0427668493904e-10
  71    -2.3272072363653e-10
  72    8.5549107975969e-09
  73    -2.9487088139925e-05
  74    0.00016372874675986
  75    -1.3973968823313e-10
  76    2.7853234259569e-10
  77    -4.5330123730583e-10
  78    5.5699194645418e-05
  79    -0.00030945170256922
  80    -1.4690844212731e-10
  81    -3.0035147809303e-10
  82    -1.5729344950526e-08
  83    -8.9037449348058e-05
  84    0.00049407967345734
  85    -9.4654080244698e-10
  86    1.8773308280858e-09
  87    1.6521642726427e-08
  88    4.2670327803531e-06
  89    -2.3580902990747e-05
  90    -7.7406015045706e-10
  91    -6.0075508521722e-10
  92    8.081118152966e-08
  93    -1.4397540391816e-07
 Sym= A
 Ene=               9
 Spin= Alpha
 Occup=    1.00000
   1    -1.581499062687e-09
   2    -4.4275119168711e-09
   3    -2.863621099654e-08
   4    4.673140309298e-08
   5    1.5108636584115e-08
   6    -1.3563043577776e-07
   7     -0.97488020697308
   8     -0.17561809130828
   9    -0.00016527495115132
  10    -0.025381137302671
  11    -0.0045722609369322
  12    -4.322189557794e-06
  13    0.0062343776409551
  14    0.0011230251710778
  15    1.1101543512598e-06
  16    -0.0017745752989792
  17    -0.00031966361782601
  18    -3.7374184375363e-07
  19    -2.3667903602527e-09
  20    -3.9726335480997e-05
  21    -7.7074832972036e-06
  22    -6.6291784084094e-09
  23    1.1561141598238e-08
  24    -1.7812106336119e-09
  25    1.6476298770975e-05
  26    3.1425802066455e-06
  27    9.1095198309884e-09
  28    -4.9589388164435e-09
  29    3.829727455689e-08
  30    2.2636200708712e-05
  31    3.853565665816e-06
  32    1.0127490897784e-09
  33    2.1244160278195e-09
  34    -1.2245705975104e-07
  35    -0.00043426162290283
  36    -7.8167310263031e-05
  37    1.7999773623036e-09
  38    -1.0896843486476e-09
  39    -1.9615727874259e-09
  40    -1.8306541661751e-05
  41    -3.3754804994859e-06
  42    -1.3666326216926e-08
  43    -1.3141559746163e-08
  44    -5.7731875559686e-05
  45    -3.4493105557591e-05
  46    -5.1688649577332e-10
  47    -2.2804981252816e-09
  48    -9.7602312164245e-09
  49    2.0851649901451e-08
  50    -5.7531660390596e-08
  51    2.3806329136141e-07
  52    5.3455663169632e-06
  53    9.5303883351061e-07
  54    -2.7787033549454e-09
  55    -2.0934913019308e-05
  56    -3.7390078193447e-06
  57    1.1075463282946e-08
  58    0.00010516071076214
  59    1.8910982725585e-05
  60    -4.837095364044e-08
  61    -0.00023526588017787
  62    -4.2415425358864e-05
  63    6.7802184566587e-09