[Molden Format]
made by pyscf v[2.2.1]
[Atoms] (AU)
Fe   1   26     0.00000000000000     0.00000000000000     0.00000000000000
Se   2   34     0.00000000000000     0.00000000000000     4.53534269895615
[GTO]
1 0
 s    8 1.00
          300784.84637  0.00024103305017787
          45088.970557  0.0018687382457119
          10262.516317  0.0097155134617046
          2905.2897293   0.039479967013317
          946.11487137    0.12842162832271
          339.87832894    0.30457860754832
          131.94425588    0.43465553776779
          52.111494077    0.22742382379948
 s    4 1.00
          329.48839267  -0.024716645792921
          101.92332739   -0.11669599822835
          16.240462745    0.55229779440271
          6.8840675801    0.53539752037712
 s    2 1.00
          10.470693782   -0.37745869768095
          1.7360039648     1.1722622909796
 s    1 1.00
         0.72577288979                   1
 s    1 1.00
         0.11595528203                   1
 s    1 1.00
        0.041968227746                   1
 p    6 1.00
           1585.395997  0.0027395641750272
          375.38006499   0.022167496552173
          120.31816501    0.10364840341367
          44.788749031    0.29703230666936
          17.829278584    0.47773374381763
          7.2247153786    0.27871749884095
 p    3 1.00
          28.143219756  -0.020268742366329
          3.8743241412    0.38603381535444
          1.5410752281    0.67538247288481
 p    1 1.00
          0.5828561525                   1
 p    1 1.00
              0.134915                   1
 d    4 1.00
          61.996675034   0.019497333982305
          17.873732552    0.11922868100386
          6.2744782934    0.37625274789341
          2.3552337175    0.64997843079553
 d    1 1.00
         0.85432239901                   1
 d    1 1.00
         0.27869254413                   1
 d    1 1.00
                 0.091                   1
 f    1 1.00
                 1.598                   1

2 0
 s    8 1.00
          531071.66696  0.00023250013436328
          79603.044117  0.0018030310921396
           18115.84424  0.0093806002257997
          5127.8923194   0.038193744864089
          1669.9130839    0.12487510513167
          600.57534527     0.2985640773394
          233.70021247    0.43508374792775
          92.672443932    0.23703476348375
 s    4 1.00
          571.57513675  -0.025689818723494
          177.63686375   -0.12102876078448
          29.517767052    0.55112023868121
          12.824399795    0.53841725796906
 s    2 1.00
          19.848235841   -0.41070358107391
          3.4744018486     1.1913902900764
 s    1 1.00
          1.5988910849                   1
 s    1 1.00
         0.38333469387                   1
 s    1 1.00
         0.14049742459                   1
 p    6 1.00
          2815.3500566  0.0027376045951124
          666.92558298   0.022349240074319
          214.34213188    0.10575253649928
          80.246687942    0.30483987150115
          32.251081288    0.48184086791936
          13.106432562    0.26141629655488
 p    4 1.00
          53.366108516  -0.018982350176163
          8.1827777195    0.28759360607356
          3.6239945672    0.50840856299736
          1.6341591401    0.30202518917809
 p    1 1.00
         0.58418320228                   1
 p    1 1.00
         0.23966269279                   1
 p    1 1.00
        0.088785134803                   1
 d    5 1.00
          151.82910279   0.010329311278932
          44.839992523   0.070444556483121
           16.32899951    0.24000423124262
          6.4305057612    0.44314439073365
          2.5048025169    0.46130007038313
 d    1 1.00
         0.90271148434                   1
 d    1 1.00
            0.47683613                   1
 d    1 1.00
             0.1853516                   1
 f    1 1.00
            0.48866905                   1

[5d]
[7f]
[9g]

[MO]
 Sym= A
 Ene=               0
 Spin= Alpha
 Occup=    1.00000
   1    5.5827063860014e-05
   2    -0.00018699486170072
   3    0.00039801199663175
   4    0.00058222060758686
   5    -0.0015308818867906
   6    -0.001037996898737
   7    -1.8112581137212e-09
   8    -3.3050218039862e-11
   9    4.4060222251799e-05
  10    5.3708780080738e-09
  11    1.7329970991921e-10
  12    -0.00013258053959364
  13    -4.0500079203108e-11
  14    -4.4907624100674e-10
  15    1.3715697212286e-05
  16    -1.593948519451e-08
  17    -5.271452729839e-10
  18    0.00016787505078561
  19    -0.00028082986205948
  20    -1.069653598419e-08
  21    3.2821864681336e-08
  22    -4.5994388146584e-06
  23    -1.7813165579591e-06
  24    -0.00017756248828995
  25    -4.6091786770562e-09
  26    1.9999232049182e-08
  27    -2.4669491245444e-06
  28    -9.0029063311595e-07
  29    -0.00018336585212845
  30    5.5526104846452e-09
  31    7.815457923822e-09
  32    5.0793848676112e-06
  33    2.0075929614156e-06
  34    -0.00019394047709647
  35    8.2166055467276e-09
  36    6.0408430967307e-10
  37    1.1098755279518e-05
  38    4.0405049885647e-06
  39    -4.65703408629e-06
  40    -1.757427672975e-10
  41    -2.0021824249083e-10
  42    2.0374157248846e-07
  43    6.1660590425057e-08
  44    1.3107964014397e-10
  45    4.3154388716381e-11
  46      0.99742691057014
  47    0.0074957468026867
  48    -0.003426343649939
  49    0.0029921955366323
  50    -0.0015911007175366
  51    0.00092506773306431
  52    8.6331156789933e-10
  53    -6.5092269627875e-09
  54    -4.4691387606449e-05
  55    -3.5730569629422e-09
  56    2.2325373945134e-08
  57    0.00013848377404277
  58    3.3784487322014e-09
  59    -1.8856191738395e-08
  60    -4.0388688334235e-05
  61    5.2988119218338e-09
  62    -4.0743566028952e-08
  63    -0.00028545681977265
  64    1.8578170300454e-09
  65    -1.4523908221231e-08
  66    -0.0005162373803006
  67    -4.1852462105844e-07
  68    -2.2954443295485e-10
  69    3.012001632156e-12
  70    -2.2153015789908e-06
  71    -7.4610363966332e-07
  72    2.7361955859584e-05
  73    3.3924816486587e-10
  74    -6.1953749386647e-10
  75    1.0463389869276e-06
  76    3.4524361365236e-07
  77    -9.2224035306841e-05
  78    -7.4615175825921e-10
  79    1.2645997062418e-09
  80    1.6613192836845e-06
  81    5.7148512284698e-07
  82    0.00015092377327799
  83    2.7081709911004e-09
  84    -6.166444619279e-10
  85    1.7827941443803e-06
  86     5.84609646601e-07
  87    -2.808995161623e-05
  88    -2.3364854614886e-10
  89    -1.074262013631e-10
  90    2.1704076576574e-06
  91    7.2732326769368e-07
  92    -3.6611956531758e-10
  93    7.8924255392358e-10
 Sym= A
 Ene=               1
 Spin= Alpha
 Occup=    1.00000
   1     -0.99773249406725
   2    -0.0070575970026685
   3    0.0028924910497995
   4    -0.0018345651111903
   5    0.00078094857744054
   6    -0.00075953200371281
   7    -1.5580629111375e-09
   8    -7.2909052988409e-10
   9    5.2147250828709e-05
  10    5.9388234676038e-09
  11    1.6506506491477e-09
  12    -0.00015480418076653
  13    -3.8348906271408e-10
  14    -1.9552797302361e-09
  15    -3.7047276026177e-05
  16    -1.7349104099224e-08
  17    -1.3278839152345e-09
  18    0.00095123289692603
  19    -0.00011440690359211
  20    -1.1180515030084e-10
  21    -8.3657878619798e-09
  22    -1.5205706075687e-06
  23    -6.7662339384507e-07
  24    -0.00011825585143572
  25    -9.8396123512019e-10
  26    -4.1242464267583e-09
  27    -1.2521152762581e-06
  28    -5.1067381845938e-07
  29    0.00015882160625082
  30    2.6381923342422e-09
  31    7.3218998059204e-10
  32    2.2275284010162e-06
  33    9.7171616005938e-07
  34    7.3561091589044e-06
  35    5.8935411107845e-09
  36    -9.409250019192e-09
  37    5.0061240918811e-06
  38    2.0033557186818e-06
  39    1.4682087190444e-05
  40    -3.2782426855515e-10
  41    -2.8620989228245e-11
  42    -4.1229526675632e-07
  43    -1.4546135077488e-07
  44    1.1923811066679e-10
  45    3.259846276096e-11
  46    1.4688219426426e-05
  47    -2.1796793194612e-05
  48    8.9218689246603e-05
  49    1.9767736924372e-05
  50    -1.2507568043072e-05
  51    -0.00059496938411116
  52    7.0226002734599e-12
  53    1.3647815761605e-09
  54    -0.00024396818527215
  55    -5.5437541521621e-11
  56    -4.482706993698e-09
  57    0.00080522428288922
  58    6.5308594482182e-10
  59    4.0747796484018e-09
  60    -0.00076930399819492
  61    -6.698644900992e-10
  62    5.0169318717867e-09
  63    -0.00098620160054939
  64    -2.0569186016611e-09
  65    1.3814549674504e-08
  66    -0.00055336851379677
  67    -2.6715389785604e-05
  68    3.3803235263207e-10
  69    1.7805211150365e-10
  70    -1.6439179782348e-06
  71    -5.5549568272887e-07
  72    -1.8671292006643e-06
  73    4.673917915473e-10
  74    -5.2660726185584e-10
  75    4.0952651310998e-07
  76    1.3341501700303e-07
  77    2.5821960950704e-05
  78    -3.1688725525133e-09
  79    1.4896328727669e-09
  80    2.8250955233965e-06
  81    9.6072943062342e-07
  82    -0.0001611815125562
  83    3.0513021520388e-09
  84    -3.6718184118256e-09
  85    -7.7109263882005e-08
  86    -3.7961930363748e-08
  87    2.3305257046799e-05
  88    5.9820515410694e-10
  89    -2.0990701730386e-09
  90    1.7326513673623e-05
  91    5.8038788223831e-06
  92    3.2245155126645e-11
  93    -1.5802092592397e-10
 Sym= A
 Ene=               2
 Spin= Alpha
 Occup=    1.00000
   1    -0.00034740515795312
   2    0.0011247405221669
   3    -0.0031803402474063
   4    -0.0029644471607533
   5     0.006760558620301
   6    0.0060424306495225
   7    1.2590737474726e-08
   8    6.3342469468093e-10
   9    -0.00029929535651537
  10    -3.7148148967396e-08
  11    -1.0296202479234e-09
  12    0.00083961286826438
  13    4.147862017059e-10
  14    3.2983402303703e-09
  15    0.0001946044623763
  16    1.0976740589166e-07
  17    4.2009012960628e-09
  18    -0.0052925959647337
  19    0.0019544790875442
  20    7.4159589448364e-08
  21    -2.2790074133235e-07
  22    3.1858086009427e-05
  23    1.2338603667493e-05
  24    0.0013184821678577
  25    3.1975299391518e-08
  26    -1.3873634767916e-07
  27    1.7238310853159e-05
  28    6.2864764081182e-06
  29    0.00030365301646952
  30    -3.838375055638e-08
  31    -5.4405654850977e-08
  32    -3.5640377229868e-05
  33    -1.4059310691893e-05
  34    0.00053920133582059
  35    -5.7015005633008e-08
  36    -3.6601133709212e-09
  37    -7.5577518245975e-05
  38    -2.7552234912408e-05
  39    -3.456755158227e-05
  40    1.214108032499e-09
  41    1.3754082172023e-09
  42    -1.40875212812e-06
  43    -4.2549832073347e-07
  44    -9.1832908660171e-10
  45    -2.9175952484695e-10
  46      0.32513872149071
  47      -1.0394033219428
  48    -0.047810540592971
  49      0.01918176077175
  50    -0.0041174386839818
  51    0.0044200963551567
  52    5.6951251921403e-08
  53    -2.5266206545081e-08
  54    0.00034004081625034
  55    2.8262724817515e-08
  56    -1.5956305780177e-07
  57    -0.0011079866283901
  58    -2.066995785246e-08
  59    1.3130451737738e-07
  60    0.0010256774761877
  61    -3.934005198107e-08
  62    2.8223980567056e-07
  63    0.00064462425250051
  64    -1.2176478854134e-08
  65    1.0088137274619e-07
  66    0.00036569664122926
  67    -1.0343043594408e-05
  68    2.464270106348e-09
  69    -7.6151222869644e-09
  70    8.1783747723109e-05
  71    2.7393365476995e-05
  72    0.00023269885581716
  73    -3.7590671658089e-09
  74    1.1069601467474e-08
  75    -5.4193750131736e-05
  76    -1.809681440082e-05
  77    -0.00040254476267352
  78    6.2427566098363e-09
  79    -1.4336949935373e-08
  80    2.7338075660071e-05
  81    9.0368771209507e-06
  82    0.0015550451408745
  83    -1.9168299277983e-08
  84    6.0420688392604e-09
  85    -2.3277737304171e-05
  86    -7.7070372341482e-06
  87    -0.00025512313958517
  88    1.6225543744953e-09
  89    6.7200772063951e-10
  90    -1.4859106675788e-05
  91    -4.9793835200324e-06
  92    2.5377216480894e-09
  93    -5.5050823181853e-09
 Sym= A
 Ene=               3
 Spin= Alpha
 Occup=    1.00000
   1    -1.2497447877591e-09
   2    8.6694510239631e-09
   3    -5.0589291310988e-09
   4    -5.3074437428697e-08
   5    1.3024949375003e-07
   6    4.1323752449417e-08
   7    9.3812613234198e-07
   8    -5.7678068369904e-06
   9    -1.1313758165331e-09
  10    -4.2711695554639e-06
  11    2.6247115615171e-05
  12    1.6324323404477e-09
  13    8.1116738221456e-06
  14    -4.9808861433621e-05
  15    2.0219470638711e-09
  16    -1.8422254469671e-05
  17    0.00011307264342095
  18    7.0448503953105e-08
  19    3.1780014188881e-08
  20    6.224328212868e-06
  21    -3.7107117653454e-05
  22    -1.4389187389255e-09
  23    8.6141909352697e-09
  24    1.6941851159893e-08
  25    -5.5564094595759e-06
  26    3.4841699179475e-05
  27    -9.4491252502975e-10
  28     5.58626709143e-09
  29    5.3736516051008e-08
  30    2.512844450208e-05
  31    -0.00015388013590875
  32    -8.8656823951264e-10
  33    3.4674262954422e-09
  34    3.1872578833645e-08
  35    -1.5245229285012e-05
  36    9.3692484228276e-05
  37    -6.9259278106794e-10
  38    -8.4727654938231e-12
  39    4.3299928939158e-09
  40    2.3644145868869e-06
  41    -1.4522073424671e-05
  42    2.132766822436e-11
  43    -2.4345424644937e-11
  44    -3.2339571714199e-09
  45    5.1003679159393e-09
  46    2.7711898622851e-08
  47    -8.5687695490744e-08
  48    5.5031823182747e-09
  49    -2.7950939873508e-08
  50    8.5513641642311e-08
  51    -1.3464096880168e-07
  52     -0.15967751552537
  53      0.98068341296551
  54    5.4579385886198e-05
  55    -0.0028117972875221
  56     0.017269230661511
  57    9.5903528637653e-07
  58    0.00095498464177805
  59    -0.0058653237074559
  60    -3.5648937341624e-07
  61    -0.00060860020362498
  62    0.0037375976367886
  63    2.8997056430773e-07
  64    0.00021199826654729
  65    -0.001302235332374
  66    -1.8342414476574e-08
  67    -3.6828932554583e-09
  68    2.1104132626002e-06
  69    -1.2953447750345e-05
  70    -3.3912509294656e-09
  71    -2.1613384762239e-09
  72    1.5493322716064e-09
  73    -5.6247453342689e-06
  74    3.4546750859789e-05
  75    6.4078035820803e-10
  76    -5.4908225781883e-09
  77    5.2893156071109e-09
  78    8.5809603447048e-06
  79    -5.2720224095253e-05
  80    -8.9601337390548e-10
  81    2.9518059728645e-09
  82    -4.6972792175785e-08
  83    -7.8688589348173e-06
  84    4.8322999818765e-05
  85    3.1345901029303e-10
  86    -9.9138709647198e-10
  87    1.2351889929545e-08
  88    -1.4839881082039e-06
  89    9.1221528991112e-06
  90    -1.8237145329831e-10
  91    -1.5701881414696e-10
  92    1.3617139601768e-07
  93    -2.5735589303122e-07
 Sym= A
 Ene=               4
 Spin= Alpha
 Occup=    1.00000
   1    1.9653361422002e-05
   2    -0.00014528611931092
   3    7.6399107261616e-05
   4    0.00092067991967931
   5    -0.0022853742162588
   6    -0.00066477233054703
   7    -9.6101146402519e-10
   8    -5.9321929802186e-10
   9    1.7479913556481e-05
  10    2.2423338156512e-09
  11    2.0430349024427e-09
  12    -2.1570633851468e-05
  13    3.0250383751022e-09
  14    -2.6549937126023e-09
  15    -2.9697752351222e-05
  16    -1.7882906842213e-08
  17    2.8185333964952e-09
  18    -0.0013065530790814
  19    -0.00031680531199949
  20    -1.1672455356362e-09
  21    2.7171876904778e-08
  22    -3.7544852257808e-06
  23    -1.4443646508486e-06
  24    -0.00014031265098303
  25    -2.3768853934639e-09
  26    1.8931753025074e-08
  27    -1.8807176416208e-06
  28    -6.9349046873696e-07
  29    -0.00086351427067236
  30    1.3780754762921e-08
  31    1.9115289878418e-10
  32    4.3422463045378e-06
  33    1.6942831037897e-06
  34    -0.00055097641655672
  35    8.7889104851413e-10
  36    4.4061617270821e-09
  37    8.3160885407499e-06
  38    3.0501071775058e-06
  39    -7.8286341516672e-05
  40    6.7704828902683e-10
  41    -8.3111754379095e-10
  42    1.1131262872414e-07
  43    3.2707265269464e-08
  44    9.6572470728477e-11
  45    1.7891798166595e-11
  46    -1.1081869755405e-05
  47    -4.2077157378829e-05
  48    -0.00016591048004309
  49    0.00056417581474768
  50    -0.0015318569348597
  51    0.0023971823570526
  52    -5.561662957286e-05
  53    4.6236867716189e-05
  54      -0.9936471300296
  55    -9.7543550756148e-07
  56    8.3044402947558e-07
  57    -0.017373160974443
  58    3.2988966283239e-07
  59    -2.9054882657266e-07
  60    0.0064129438828277
  61    -2.1017270922838e-07
  62    1.4004426122065e-07
  63    -0.0052529403992718
  64    7.115311565725e-08
  65    -7.5093091090846e-08
  66    0.00033760057314673
  67    1.7792991416145e-05
  68    2.0441855591354e-09
  69    -4.3631958870966e-09
  70    -1.193316341812e-06
  71    -4.0515521553936e-07
  72    -3.3787800382562e-05
  73    4.385422426098e-09
  74    8.6031520957858e-10
  75    5.1447893084277e-07
  76    1.7023382187247e-07
  77    -9.3093468869773e-05
  78    -1.4822197665157e-09
  79    -1.7275133822923e-09
  80    1.5279923487975e-06
  81    5.2130964016824e-07
  82    0.00085791043847765
  83    5.5987471237556e-10
  84    2.4317608685466e-09
  85    1.1644570835372e-06
  86    3.8701024042805e-07
  87    -0.00022688408583863
  88    -5.000750202789e-10
  89    3.4462829150909e-11
  90    3.0389964404866e-06
  91    1.0164606495937e-06
  92    -2.1053727440227e-10
  93    6.1219928647479e-10
 Sym= A
 Ene=               5
 Spin= Alpha
 Occup=    1.00000
   1    9.725666613832e-10
   2    -7.0029674643464e-09
   3    3.9991965141004e-09
   4    4.3971496835737e-08
   5    -1.0981590491954e-07
   6    -3.2167131997602e-08
   7    -3.2391671399208e-06
   8    -5.313809983606e-07
   9    8.2444321678045e-10
  10    1.9148413581202e-05
  11    3.1291753674835e-06
  12    -9.8435192968686e-10
  13    -4.9248297914424e-05
  14    -8.020287793717e-06
  15    -1.5030402656497e-09
  16    0.00013182786298485
  17    2.1434047721549e-05
  18    -6.2577266562954e-08
  19    -1.5234967313548e-08
  20    -0.00014045315424883
  21    -2.2762812703368e-05
  22    6.7647956137747e-10
  23    3.213197821872e-10
  24    -6.7507631701454e-09
  25    -3.1234310277735e-05
  26    -5.0144778777467e-06
  27    5.4183290992564e-10
  28    3.8685084317289e-11
  29    -4.1414290423582e-08
  30    -0.00018838401164138
  31    -3.0637999276593e-05
  32    -1.2218306080447e-09
  33    -4.2939405331192e-10
  34    -2.6256530653259e-08
  35    8.8126871928602e-05
  36    1.4347899782334e-05
  37    -1.1113717165131e-09
  38    -1.3088291681027e-10
  39    -3.6596356848822e-09
  40    -1.3969781568065e-05
  41    -2.2753601368402e-06
  42    -4.8426819379594e-11
  43    -1.7385346366155e-11
  44    1.2389774600778e-08
  45    7.5177905855297e-09
  46    -1.7654166187922e-08
  47    5.4131570592237e-08
  48    -3.9992478267868e-09
  49    2.227925635828e-08
  50    -7.2554392478732e-08
  51    1.1520938502318e-07
  52      0.98072960192126
  53       0.1596850096933
  54    -4.7463549348375e-05
  55     0.017131253071225
  56    0.0027894269302747
  57    -8.2943121259728e-07
  58    -0.0057667685882661
  59    -0.00093902204539808
  60    3.0629989412376e-07
  61    0.0038129212082924
  62    0.00062072025423817
  63    -2.512345021524e-07
  64    -0.0012165790089713
  65    -0.0001981653209852
  66    1.6004156770797e-08
  67    1.4597570965424e-09
  68    -1.3065678906058e-05
  69    -2.1287079055402e-06
  70    -2.0853822434072e-09
  71    3.5330119468631e-09
  72    1.6080749298894e-09
  73    3.4489320515718e-05
  74    5.6157129193212e-06
  75    -5.8767269116531e-09
  76    -9.7236767947389e-10
  77    -6.3038869447974e-09
  78    -5.1211963176305e-05
  79    -8.3388873272588e-06
  80    3.5579613413018e-09
  81    1.1251392887878e-09
  82    4.1241292968103e-08
  83    4.3126108124949e-05
  84    7.032801260663e-06
  85    -1.1094345010608e-09
  86    -1.4384953692249e-10
  87    -1.0797668399924e-08
  88    9.5545717094754e-06
  89    1.5551843186486e-06
  90    -3.4803784020349e-10
  91    2.0599447750353e-10
  92    -1.9251465594139e-06
  93    -1.011641982692e-06
 Sym= A
 Ene=               6
 Spin= Alpha
 Occup=    1.00000
   1      0.31482173013167
   2      -1.0372184266849
   3    -0.043028824276909
   4     0.018372610640121
   5    -0.0074922847721204
   6    -0.0034030313126493
   7    9.0607341602998e-08
   8    -9.1602350850315e-08
   9    0.00029014868218159
  10    4.647218522184e-08
  11    1.0384283666195e-08
  12    -0.0013594536157615
  13    5.5632332995783e-09
  14    -2.1172707692508e-08
  15    0.00056124860973432
  16    -1.3744133671383e-07
  17    -2.4726061221911e-09
  18    0.0020295467135788
  19    -0.0012911660855238
  20    1.2333057943517e-07
  21    -6.0683411477332e-08
  22    0.00010814016622829
  23    3.942292616501e-05
  24    0.0001291053256585
  25    -1.3863528550666e-07
  26    -3.3788777310413e-08
  27    -0.0001315808424252
  28    -4.9335617504543e-05
  29    -0.00098647942133149
  30    4.3582022362563e-08
  31    6.301422219626e-09
  32    3.2816008204058e-05
  33    1.3362316757895e-05
  34    -0.0010311422494602
  35    2.6491291469183e-08
  36    -6.4640175904949e-08
  37    2.2004258877041e-05
  38    9.1572581464725e-06
  39    -1.0417335038992e-05
  40    -2.4095670054053e-09
  41    -4.8036617331833e-11
  42    -3.8751134868673e-06
  43    -1.3508610115458e-06
  44    8.4771304123518e-10
  45    5.9125416110682e-10
  46    -1.8916398800877e-05
  47    2.4601355694919e-05
  48    0.00014052024872896
  49    0.0012847952804413
  50    -0.0038452027794599
  51    0.0028071161046425
  52    6.3916935135644e-10
  53    1.0166316827161e-08
  54    -0.0018199071478714
  55    -2.5526223483454e-09
  56    -3.3085854567278e-08
  57    0.0058583813098877
  58    9.0614086008629e-09
  59    3.3045362720991e-08
  60    -0.0044953561664071
  61    -5.789944483445e-09
  62    2.708996767099e-08
  63    -0.010407325685798
  64    -8.3283782194489e-09
  65    1.0798778192363e-07
  66    -0.0072623601599233
  67    -0.00020285894609469
  68    2.4902237816425e-09
  69    1.1690498793565e-09
  70    -1.27244399182e-05
  71    -4.2933750541235e-06
  72    -8.9812676571162e-05
  73    9.1190623132358e-10
  74    -4.0911064479952e-09
  75    4.3602268540574e-06
  76    1.4616783120936e-06
  77    0.00024012303774916
  78    -2.0754972020497e-08
  79    1.1758811102913e-08
  80    2.0325696139531e-05
  81    6.8665966035178e-06
  82    0.0012291392048842
  83    2.5142750916544e-08
  84    -2.6202563824895e-08
  85    1.2491281472904e-06
  86    3.4300886931961e-07
  87    -0.00020762957781276
  88    5.5558954430639e-11
  89    -1.8207240982828e-08
  90    0.00012865637199936
  91    4.3138662233957e-05
  92    -8.3836923120253e-11
  93    -8.9872467698292e-10
 Sym= A
 Ene=               7
 Spin= Alpha
 Occup=    1.00000
   1    -7.7618103123398e-06
   2    -4.681486410771e-05
   3    7.9841146274142e-05
   4    0.00041178125672711
   5    -1.2760671465746e-05
   6    -0.0016432677936011
   7    0.00017404544822964
   8    -2.0826776232475e-05
   9     -0.99040574209589
  10    4.5903578752536e-06
  11    -5.4922005292716e-07
  12    -0.026387935025601
  13    -1.1505018298655e-06
  14    1.3887462637495e-07
  15    0.0069195671035903
  16    2.9264244796663e-07
  17    -3.9219125856244e-08
  18    -0.0015482212947623
  19    -0.00020703679694569
  20    6.594285231981e-10
  21    4.1990916845034e-09
  22    -1.6817168502582e-06
  23    -8.7846189096602e-07
  24    -8.7369432714105e-05
  25    8.9789497892379e-09
  26    -6.1322508868845e-10
  27    -4.4362293132345e-06
  28    -1.5267260769675e-06
  29    0.00024003517398495
  30    -3.8125853472654e-09
  31    4.7294725271997e-09
  32    6.4713885911474e-06
  33    2.4608886579111e-06
  34    -0.0008609188742577
  35    9.1362715818644e-08
  36    -1.930141206577e-08
  37    6.5261391687941e-06
  38    2.6647541083213e-06
  39    -3.6839334113439e-05
  40    3.5857326177539e-08
  41    1.5824602416261e-08
  42    4.2127507952996e-05
  43    1.5571192778415e-05
  44    -1.4729408635749e-08
  45    -3.1549141481068e-09
  46    -3.1437803523312e-06
  47    -4.8175700831605e-06
  48    2.4393537712058e-06
  49    0.00026620431270622
  50    -0.00074957806774458
  51     0.001351225196206
  52    -1.4959978365665e-08
  53    1.1921410702376e-09
  54    -0.00036479147285409
  55     4.96799360083e-08
  56    -3.981143995821e-09
  57    0.0011937622574623
  58    -5.9277369109674e-08
  59    5.998212662539e-09
  60    -0.0012562465118049
  61    -2.8850008374409e-08
  62    -2.483658019788e-09
  63    -0.0016695577194092
  64    -1.790233958242e-07
  65    2.6971000109379e-08
  66    -0.0015190737371928
  67    -7.231393139345e-05
  68    -4.313961896424e-09
  69    1.3125299590873e-10
  70    -2.5435495240172e-06
  71    -8.5858367448606e-07
  72    0.00012290727437588
  73    3.1151745770025e-08
  74    -3.4443677046213e-09
  75    6.9896860715292e-07
  76    2.2366103540529e-07
  77    9.2830002887754e-05
  78    -6.1659709837458e-08
  79    7.1609632670091e-09
  80    4.7065127864763e-06
  81    1.6030175519476e-06
  82    -0.00035446707191705
  83    9.9599022808003e-08
  84    -9.8566396094128e-09
  85    1.6348116911963e-06
  86    5.3084745837091e-07
  87    0.00033893970401275
  88    -4.3408202612437e-09
  89    -1.8691622566475e-09
  90    2.326577709187e-05
  91    7.7860940684907e-06
  92    1.3027328238561e-09
  93    4.1683088179287e-10
 Sym= A
 Ene=               8
 Spin= Alpha
 Occup=    1.00000
   1    -3.3883016642679e-08
   2    1.1597027659192e-07
   3    -7.3675127864199e-09
   4    -2.5644371599136e-08
   5      1.6480159089e-08
   6    8.5463293230752e-08
   7      0.17558941721922
   8     -0.97484856520073
   9    5.1348294002711e-05
  10    0.0045913799276765
  11    -0.025489505578703
  12    1.361648783827e-06
  13    -0.001134889682948
  14     0.006300381705757
  15    -3.5253377640687e-07
  16    0.00031729075366107
  17    -0.0017653626864043
  18    7.5107802474613e-08
  19    3.6480999840828e-08
  20    -2.4017606837675e-05
  21    0.00015825492868542
  22    -1.0567197090125e-08
  23    8.9894570944713e-09
  24    3.6566231146232e-08
  25    -2.8144486051323e-05
  26    0.00017534967469353
  27    4.4946037740822e-09
  28    2.6056353276124e-08
  29    4.516201007077e-10
  30    -2.0240122596185e-05
  31    0.00012234196184548
  32    -3.7816039440344e-09
  33    5.874422621537e-09
  34    4.9647264430416e-08
  35    7.4451072607012e-05
  36    -0.00041062270940196
  37    1.4993545947871e-09
  38    5.9655894313412e-09
  39    1.6878345331277e-08
  40    9.9359764569835e-06
  41    -5.5666301263558e-05
  42    -8.0531763933514e-09
  43    3.7537126491375e-08
  44    -4.6965258647816e-05
  45    7.8807179618047e-05
  46    3.2104802526989e-10
  47    -4.3479680617485e-10
  48    -1.0877434708623e-09
  49    -1.8418636878961e-08
  50    5.2000324974103e-08
  51    -7.01958830429e-08
  52    -6.777023957425e-06
  53    3.2304537513437e-05
  54    1.8632574923856e-08
  55    2.2977284275844e-05
  56    -0.00011016211451502
  57    -6.0277783818441e-08
  58    -3.6198023819615e-05
  59    0.00018533835373035
  60    6.1246064013575e-08
  61    1.2081262121812e-05
  62    -9.3530600123225e-05
  63    8.5110574725241e-08
  64    -0.0001402395083762
  65    0.00075841844109463
  66    7.9149173963584e-08
  67    3.7563477987362e-09
  68    -4.8931407501635e-06
  69    2.7205658158276e-05
  70    8.9051178498421e-12
  71    6.7608950654349e-11
  72    -7.9073121699511e-09
  73    2.9659203700939e-05
  74    -0.00016464915964201
  75    4.758640969519e-11
  76    -2.1693933178578e-10
  77    -1.2213098607179e-09
  78    -5.4844191885336e-05
  79    0.00030411794442844
  80    -2.1315686898722e-10
  81    3.969452840126e-10
  82    1.7003480628208e-08
  83    9.2448134984627e-05
  84    -0.0005127667346003
  85    2.3034107038813e-10
  86    -1.0966915786187e-09
  87    -1.7118483101873e-08
  88    -4.9068759139388e-06
  89    2.7143508090659e-05
  90    -6.2559602132547e-10
  91    -1.4848772243344e-10
  92    1.164602343132e-06
  93    -1.935800382157e-06
 Sym= A
 Ene=               9
 Spin= Alpha
 Occup=    1.00000
   1    2.6058391207697e-08
   2    -1.0156129629454e-07
   3    2.1084092188101e-09
   4    8.1673753742758e-08
   5    -6.1626216800291e-09
   6    -2.7422224745641e-07
   7     -0.97487752523775
   8     -0.17559476158606
   9    -0.00016760085094477
  10    -0.025402151135732
  11    -0.0045752195698003
  12    -4.4208934000007e-06
  13    0.0062338577649608
  14    0.0011227852113755
  15    1.1322806608303e-06
  16    -0.0017108812505469
  17    -0.00030884569777421
  18    -2.4400319913489e-07
  19    -3.1506248985137e-08
  20    -7.6088434018685e-05
  21    -9.5979881098693e-06
  22    -7.8222025713054e-09
  23    8.3602720066263e-09
  24    -1.8106620105748e-08
  25    -5.3115823596916e-06
  26    2.2448357931637e-06
  27    8.0221087052749e-09
  28     -7.1215903673e-09
  29    4.0542634278726e-08
  30    2.6397210227533e-05
  31    6.4075387242281e-06
  32    -1.0683169671598e-09
  33    1.8190535901063e-10
  34    -1.4075514356807e-07
  35    -0.00043303938416873
  36    -7.7519875480156e-05
  37    3.5324655662967e-10
  38    -1.3794302262291e-09
  39    -6.0061867025391e-10
  40    -1.6826371990368e-05
  41    -3.1208044169609e-06
  42    -1.3696629442211e-08
  43    -1.3160385730031e-08
  44    -5.7678881728862e-05
  45    -3.4462979068301e-05
  46    -4.8274805387061e-10
  47    -1.0020344803621e-09
  48    1.8549026107789e-10
  49    4.3723088804067e-08
  50    -1.2327061545553e-07
  51    2.2321814963018e-07
  52    8.6603966265826e-05
  53    1.464707382737e-05
  54    -6.1668231724128e-08
  55    -0.00028781536267003
  56    -4.8725751302131e-05
  57    2.0192455936504e-07
  58    0.00034396164636696
  59    5.9148785251538e-05
  60    -2.1190452736553e-07
  61    0.00017917615008581
  62    2.7575477242116e-05
  63    -2.8221166307123e-07
  64    0.00095951160986299